OMP: Warning #181: OMP_PROC_BIND: ignored because KMP_AFFINITY has been defined
LAMMPS (29 Oct 2020)
  using 1 OpenMP thread(s) per MPI task
# bulk water

units           metal
boundary        p p p
atom_style      atomic

neighbor        2.0 bin
neigh_modify    every 10 delay 0 check no

read_data	    water.lmp
Reading data file ...
  triclinic box = (0.0000000 0.0000000 0.0000000) to (12.444700 12.444700 12.444700) with tilt (0.0000000 0.0000000 0.0000000)
  1 by 1 by 1 MPI processor grid
  reading atoms ...
  192 atoms
  read_data CPU = 0.021 seconds
mass 		    1 16
mass		    2 2
replicate       1 1 1
Replicating atoms ...
  triclinic box = (0.0000000 0.0000000 0.0000000) to (12.444700 12.444700 12.444700) with tilt (0.0000000 0.0000000 0.0000000)
  1 by 1 by 1 MPI processor grid
  192 atoms
  replicate CPU = 0.000 seconds
pair_style	    deepmd ../model/graph-compress.pb
Summary of lammps deepmd module ...
  >>> Info of deepmd-kit:
  installed to:       /home/hp200266/u01036/gzq/deepmd-kit/dp
  source:             v1.2.2-752-g2555311-dirty
  source brach:       devel_
  source commit:      2555311
  source commit at:   2021-07-04 23:33:27 +0800
  surpport model ver.:1.0 
  build float prec:   double
  build with tf inc:  /home/hp200266/u01036/gzq/fj_software/tensorflow/TensorFlow-2.2.0/include;/home/hp200266/u01036/gzq/fj_software/tensorflow/TensorFlow-2.2.0/include
  build with tf lib:  /home/hp200266/u01036/gzq/fj_software/tensorflow/TensorFlow-2.2.0/lib/libtensorflow_cc.so;/home/hp200266/u01036/gzq/fj_software/tensorflow/TensorFlow-2.2.0/lib/libtensorflow_framework.so
  set tf intra_op_parallelism_threads: 1
  set tf inter_op_parallelism_threads: 1
  >>> Info of lammps module:
  use deepmd-kit at:  /home/hp200266/u01036/gzq/deepmd-kit/dp
  source:             v1.2.2-742-g4fdac66-dirty
  source branch:      devel_
  source commit:      4fdac66
  source commit at:   2021-07-01 22:31:51 +0900
  build float prec:   double
  build with tf inc:  /home/hp200266/u01036/gzq/fj_software/tensorflow/TensorFlow-2.2.0/include;/home/hp200266/u01036/gzq/fj_software/tensorflow/TensorFlow-2.2.0/include
  build with tf lib:  /home/hp200266/u01036/gzq/fj_software/tensorflow/TensorFlow-2.2.0/lib/libtensorflow_cc.so;/home/hp200266/u01036/gzq/fj_software/tensorflow/TensorFlow-2.2.0/lib/libtensorflow_framework.so
  >>> Info of model(s):
  using   1 model(s): ../model/graph-compress.pb 
  rcut in model:      6
  ntypes in model:    2
pair_coeff

velocity        all create 330.0 23456789

fix             1 all nvt temp 330.0 330.0 0.5
timestep        0.0005
thermo_style    custom step pe ke etotal temp press vol
thermo          20
dump		    1 all custom 100 water.dump id type x y z

run             100
Neighbor list info ...
  update every 10 steps, delay 0 steps, check no
  max neighbors/atom: 2000, page size: 100000
  master list distance cutoff = 8
  ghost atom cutoff = 8
  binsize = 4, bins = 4 4 4
  1 neighbor lists, perpetual/occasional/extra = 1 0 0
  (1) pair deepmd, perpetual
      attributes: , newton on
      pair build: full/bin/atomonly
      stencil: full/bin/3d
      bin: standard
Setting up Verlet run ...
  Unit style    : metal
  Current step  : 0
  Time step     : 0.0005
Per MPI rank memory allocation (min/avg/max) = 3.908 | 3.908 | 3.908 Mbytes
Step PotEng KinEng TotEng Temp Press Volume 
       0   -29944.115    8.1472669   -29935.967          330    4865.6625    1927.3176 
      20   -29943.787    7.8209379   -29935.966    316.78225    516.97012    1927.3176 
      40   -29944.397    8.4288856   -29935.968    341.40679   -2392.0198    1927.3176 
      60   -29943.946    7.9864812   -29935.959    323.48747    4701.8386    1927.3176 
      80   -29944.873    8.9010067   -29935.972    360.52976    2061.5908    1927.3176 
     100   -29944.145    8.1837761   -29935.961    331.47878   -5249.3479    1927.3176 
Loop time of 10.1448 on 1 procs for 100 steps with 192 atoms

Performance: 0.426 ns/day, 56.360 hours/ns, 9.857 timesteps/s
99.9% CPU use with 1 MPI tasks x 1 OpenMP threads

MPI task timing breakdown:
Section |  min time  |  avg time  |  max time  |%varavg| %total
---------------------------------------------------------------
Pair    | 10.103     | 10.103     | 10.103     |   0.0 | 99.59
Neigh   | 0.033881   | 0.033881   | 0.033881   |   0.0 |  0.33
Comm    | 0.0034347  | 0.0034347  | 0.0034347  |   0.0 |  0.03
Output  | 0.0020409  | 0.0020409  | 0.0020409  |   0.0 |  0.02
Modify  | 0.0018361  | 0.0018361  | 0.0018361  |   0.0 |  0.02
Other   |            | 0.0008454  |            |       |  0.01

Nlocal:        192.000 ave         192 max         192 min
Histogram: 1 0 0 0 0 0 0 0 0 0
Nghost:        2113.00 ave        2113 max        2113 min
Histogram: 1 0 0 0 0 0 0 0 0 0
Neighs:        0.00000 ave           0 max           0 min
Histogram: 1 0 0 0 0 0 0 0 0 0

Total # of neighbors = 0
Ave neighs/atom = 0.0000000
Neighbor list builds = 10
Dangerous builds not checked


Please see the log.cite file for references relevant to this simulation

Total wall time: 0:00:13
OMP: Warning #181: OMP_PROC_BIND: ignored because KMP_AFFINITY has been defined
INFO: You are running LIKWID in a cpuset with 50 CPUs. Taking given IDs as logical ID in cpuset
[1;34m[likwid-pin] Main PID -> hwthread 12 - OK[0m
