ITEM: TIMESTEP
0
ITEM: NUMBER OF ATOMS
192
ITEM: BOX BOUNDS xy xz yz pp pp pp
0.0000000000000000e+00 1.2444699999999999e+01 0.0000000000000000e+00
0.0000000000000000e+00 1.2444699999999999e+01 0.0000000000000000e+00
0.0000000000000000e+00 1.2444699999999999e+01 0.0000000000000000e+00
ITEM: ATOMS id type x y z
1 1 11.83 2.56 2.18
2 1 5.36 6 1.81
3 1 12.17 7.34 2.71
4 1 3.38 4.28 4.84
5 1 4.54 11.73 11.9
6 1 7.34 0.18 2.18
7 1 5.73 9.9 10.31
8 1 5.32 11.19 1.83
9 1 9.39 11.14 1.1
10 1 12.06 0.64 8.92
11 1 5.01 7.72 11.74
12 1 3.64 3.19 1.08
13 1 11.88 10.9 4.7
14 1 3.88 8.05 2.51
15 1 9.82 9.16 10.18
16 1 11 5.31 5.17
17 1 0.97 4.12 0.84
18 1 1.24 5.99 4.76
19 1 10.1 9.09 3.32
20 1 8.39 5.72 10.39
21 1 8.06 4.72 1.3
22 1 3.23 3.34 8.26
23 1 5.02 6.21 7.29
24 1 3.94 10.55 3.95
25 1 6.25 4.56 4.21
26 1 12.18 2.35 11.11
27 1 6.76 8.57 4.07
28 1 5.87 5.84 9.79
29 1 2.18 6.91 6.99
30 1 10.89 7.69 6.78
31 1 8.03 4.28 6.57
32 1 5.29 1.92 11.56
33 1 1.53 12.16 3.45
34 1 2.04 5.49 9.71
35 1 6.66 9.05 1.21
36 1 11.75 6.18 11.01
37 1 6.11 3.07 7.96
38 1 8.22 1.38 9.43
39 1 1.31 2.02 7.09
40 1 9.48 2.11 5.92
41 1 9.33 3.34 10.97
42 1 1.31 8.49 0.81
43 1 11.25 3.48 7.51
44 1 11.7 0.33 0.6
45 1 7.63 2.04 0.28
46 1 8.86 9.52 7.4
47 1 2.01 11.54 6.89
48 1 8.02 11.27 4.66
49 1 5.82 9.18 7.71
50 1 8.11 11.19 11.22
51 1 5.94 0.84 5.91
52 1 1.88 11.66 0.64
53 1 4.66 11.28 6.73
54 1 10.32 6.26 0.89
55 1 2.01 11.07 10.33
56 1 5.36 2.06 3.14
57 1 8.56 7.59 12.17
58 1 10.51 5.81 8.66
59 1 2.37 6.23 12.1
60 1 0.3 8.77 10.05
61 1 9.47 12.13 7.57
62 1 1.41 2.32 4.17
63 1 9.69 3.69 3.56
64 1 0.75 9.22 7.39
65 2 11.09 2.87 2.74
66 2 5.51 5.51 2.6
67 2 0.24 6.8 3.29
68 2 4.28 4.19 4.46
69 2 3.63 11.56 11.76
70 2 6.53 12.07 1.99
71 2 5.37 9.14 10.85
72 2 5.74 10.31 1.64
73 2 8.71 11.07 0.41
74 2 0.27 1.04 8.27
75 2 5.46 7.08 11.15
76 2 3.84 4.17 1.06
77 2 11.55 10.19 4.15
78 2 3 8.17 2.14
79 2 9.53 10.04 10.56
80 2 11.18 4.84 6.05
81 2 0.68 3.76 12.44
82 2 0.43 5.51 4.88
83 2 9.51 9.48 3.94
84 2 9.08 5.89 9.68
85 2 7.92 3.83 0.8
86 2 4.23 3.22 8.21
87 2 5.27 5.9 8.19
88 2 4.44 10.9 3.14
89 2 6.93 4.56 4.89
90 2 11.88 1.61 11.75
91 2 6.79 8.54 3.09
92 2 5.62 4.99 10.13
93 2 3.09 6.66 6.98
94 2 11.73 8.22 6.86
95 2 8.4 3.45 6.18
96 2 4.64 2.37 12.16
97 2 0.74 11.69 3.86
98 2 1.1 5.3 9.72
99 2 7.54 9.11 0.83
100 2 11.36 6.2 11.9
101 2 5.85 2.21 7.53
102 2 8.81 2.01 9.89
103 2 2.17 2.43 7.46
104 2 10.1 2.53 6.55
105 2 9.07 4.29 10.91
106 2 0.64 8.13 1.45
107 2 11.12 4.2 8.14
108 2 11.03 12.03 0.58
109 2 6.83 1.84 12.19
110 2 9.13 10.45 7.25
111 2 1.76 12.44 6.8
112 2 7.37 11.88 5.08
113 2 5.59 8.29 7.44
114 2 8.14 12.12 10.86
115 2 5.48 0.06 6.32
116 2 0.99 11.99 0.41
117 2 4.54 10.95 5.79
118 2 10.94 6.29 1.65
119 2 2.52 10.55 9.76
120 2 4.74 2.41 2.42
121 2 8.84 8.27 11.56
122 2 10.89 6.06 9.58
123 2 2.15 5.99 11.18
124 2 0.49 9.06 9.13
125 2 8.69 12.34 8.15
126 2 1.76 1.44 4.07
127 2 10.05 4.44 4.1
128 2 1.44 8.49 7.32
129 2 12.25 3.32 1.68
130 2 6.27 6.22 1.56
131 2 11.5 7.85 3.14
132 2 2.96 3.44 4.61
133 2 5.04 11.17 11.3
134 2 7.6 12.39 3.03
135 2 5.94 9.68 9.37
136 2 4.93 11.46 0.96
137 2 8.92 11.68 1.69
138 2 12.07 1.36 9.54
139 2 4.17 7.28 11.8
140 2 2.67 3.09 1.05
141 2 11.89 10.59 5.56
142 2 4.27 7.23 2.16
143 2 10.8 9.22 10.18
144 2 10.68 6.2 5.44
145 2 1.51 4.9 0.53
146 2 1.94 5.36 4.61
147 2 10.02 9.64 2.47
148 2 8.41 6.43 11.04
149 2 8.58 4.29 2.01
150 2 3.12 4.28 8.41
151 2 5.12 5.54 6.6
152 2 3.97 9.58 3.89
153 2 6.17 3.63 3.9
154 2 11.4 2.92 10.99
155 2 5.96 8.02 4.26
156 2 6.81 5.9 9.83
157 2 1.83 6.59 6.16
158 2 10.19 8.36 6.88
159 2 8.74 4.67 7.12
160 2 4.84 1.08 11.38
161 2 2.38 11.71 3.7
162 2 2.02 6.1 8.92
163 2 6.05 8.48 0.61
164 2 12.12 7.05 10.81
165 2 6.81 3.46 7.31
166 2 7.52 1.99 9.1
167 2 1.25 2.26 6.18
168 2 9.31 1.19 6.35
169 2 8.84 2.9 11.69
170 2 1.39 9.44 0.85
171 2 12.13 3.22 7.5
172 2 11.38 0.95 1.34
173 2 7.43 1.82 1.24
174 2 9.15 9.43 8.28
175 2 2.97 11.66 6.88
176 2 7.5 10.43 4.47
177 2 6.69 9.4 7.47
178 2 7.29 10.77 10.93
179 2 5.45 1.07 5.12
180 2 1.92 11.57 1.62
181 2 5.05 10.55 7.26
182 2 9.73 5.52 1.11
183 2 1.73 11.85 9.82
184 2 6.02 1.57 2.67
185 2 9.34 7.2 0.21
186 2 10.71 6.56 7.97
187 2 1.86 7.03 12.37
188 2 1.08 9.16 10.59
189 2 10.19 12.39 8.15
190 2 0.92 2.56 3.28
191 2 9.34 3.01 4.17
192 2 1.11 10.09 7.21
ITEM: TIMESTEP
100
ITEM: NUMBER OF ATOMS
192
ITEM: BOX BOUNDS xy xz yz pp pp pp
0.0000000000000000e+00 1.2444699999999999e+01 0.0000000000000000e+00
0.0000000000000000e+00 1.2444699999999999e+01 0.0000000000000000e+00
0.0000000000000000e+00 1.2444699999999999e+01 0.0000000000000000e+00
ITEM: ATOMS id type x y z
1 1 11.8548 2.27073 2.15025
2 1 5.27143 6.07624 1.76132
3 1 12.339 7.29512 2.70385
4 1 3.01875 4.15521 4.84818
5 1 4.68499 12.1612 11.5321
6 1 7.38963 0.0531471 2.35991
7 1 5.28696 9.7296 10.1596
8 1 5.55746 11.45 1.78093
9 1 9.33545 11.0217 0.742074
10 1 12.0348 0.389232 9.25968
11 1 5.18006 7.977 11.4884
12 1 3.55851 3.23105 1.28552
13 1 11.8723 10.7795 4.79136
14 1 3.65292 7.68449 2.80042
15 1 10.0315 9.67681 10.4618
16 1 10.8381 5.08773 4.83351
17 1 0.851327 3.77842 0.613016
18 1 1.24383 6.33341 4.88049
19 1 10.3553 9.08857 3.36811
20 1 8.16799 5.80593 10.4026
21 1 8.11476 4.27577 1.58666
22 1 3.08995 3.33916 8.8961
23 1 5.39264 6.32721 6.91735
24 1 3.88082 10.6082 3.98669
25 1 6.39017 4.86786 4.41134
26 1 12.2061 2.04436 11.014
27 1 6.71234 8.25723 4.37254
28 1 5.86333 5.76604 10.0539
29 1 2.21117 6.88132 6.61387
30 1 10.36 7.53938 6.97768
31 1 7.73813 4.31039 6.64036
32 1 5.09631 2.18869 11.6883
33 1 1.50362 12.0566 3.53235
34 1 2.19695 5.74348 9.79948
35 1 7.22449 9.05951 1.1845
36 1 11.5152 6.31262 11.3125
37 1 5.9958 3.1598 8.113
38 1 8.42745 1.11461 9.2587
39 1 1.72154 1.98224 6.93174
40 1 9.56527 2.04265 5.90967
41 1 9.11954 3.38059 10.7036
42 1 1.22981 8.54625 0.870533
43 1 11.1677 3.49811 7.35669
44 1 11.8106 0.375994 0.459114
45 1 7.65415 2.04782 12.2916
46 1 8.70659 9.76722 7.24486
47 1 2.27817 11.8037 6.72756
48 1 7.99458 11.4362 5.05041
49 1 5.74085 8.8723 7.61862
50 1 8.33589 11.1758 11.3278
51 1 5.60564 1.03827 5.64475
52 1 1.79696 11.5838 0.978114
53 1 4.54863 11.3694 6.64404
54 1 10.3812 6.55335 0.670951
55 1 2.01949 11.1221 10.4389
56 1 5.0734 2.27326 3.03812
57 1 8.82222 7.29058 12.3728
58 1 10.7149 5.69712 8.31143
59 1 2.34529 6.28919 11.8067
60 1 0.709146 9.06343 10.1748
61 1 9.15474 12.0797 7.53422
62 1 1.63351 2.06783 4.61204
63 1 9.84152 3.7985 3.5334
64 1 0.860235 8.82287 7.13197
65 2 11.4321 1.41612 2.32543
66 2 5.51793 5.34645 2.28519
67 2 0.535968 7.84992 3.14347
68 2 3.77974 4.78018 4.85085
69 2 4.31894 11.1918 11.4558
70 2 6.75072 11.7177 2.18639
71 2 5.05522 8.69868 10.4179
72 2 5.7029 10.9338 0.972114
73 2 8.50527 11.3781 0.35185
74 2 12.3538 0.714155 8.42787
75 2 5.57814 7.05576 11.4809
76 2 2.98976 3.60538 0.645573
77 2 11.7479 11.3598 4.00309
78 2 2.78498 7.91471 3.03966
79 2 9.63347 10.6378 10.4262
80 2 11.0877 5.12125 5.74916
81 2 0.348228 4.36685 0.0783139
82 2 1.34635 5.47013 5.33388
83 2 9.71497 9.2384 4.0362
84 2 7.95178 6.50469 9.7646
85 2 7.69663 4.66886 0.850369
86 2 2.87978 2.5319 9.40801
87 2 5.21516 5.87054 7.76434
88 2 4.32272 10.1869 3.25993
89 2 7.12847 5.47981 4.47577
90 2 0.490487 1.47969 11.3926
91 2 7.33797 8.02374 3.7165
92 2 5.31878 5.2655 10.6114
93 2 2.99776 6.98757 7.06223
94 2 11.277 7.525 6.65072
95 2 8.62048 3.87241 6.56621
96 2 4.62537 2.85618 11.2241
97 2 1.09094 12.3173 4.38177
98 2 1.54906 5.08708 9.69665
99 2 7.66135 8.85175 0.320045
100 2 11.5521 6.4222 12.4004
101 2 5.84035 2.47979 7.3967
102 2 8.67565 1.78518 8.61976
103 2 1.86001 2.39741 7.78211
104 2 10.3374 1.75188 6.42579
105 2 9.31251 3.85637 11.5619
106 2 0.447126 9.06812 0.898645
107 2 10.3458 3.37811 7.85079
108 2 11.966 12.3438 12.0571
109 2 7.30589 1.20787 12.3146
110 2 8.90237 10.7192 7.44053
111 2 2.74889 12.3894 6.07728
112 2 7.12846 11.4462 5.61598
113 2 4.89946 8.66492 7.16348
114 2 8.06172 12.0572 10.9699
115 2 5.04517 0.665069 6.35023
116 2 1.47379 12.1226 0.236693
117 2 4.8613 10.5375 6.32897
118 2 10.7079 6.27757 1.49813
119 2 2.30748 10.6507 9.67226
120 2 5.13542 1.49022 2.47842
121 2 9.20232 7.84603 11.6538
122 2 11.1272 5.44105 9.1668
123 2 2.57119 5.64565 10.997
124 2 0.615319 9.77918 9.56886
125 2 8.82678 0.300332 6.88227
126 2 2.3562 1.67003 4.17802
127 2 10.1536 4.31724 4.3814
128 2 1.77695 9.05692 6.89875
129 2 11.1694 2.98912 2.20219
130 2 5.87956 6.1751 1.03815
131 2 11.5729 7.8262 2.77033
132 2 3.40241 3.43209 4.24302
133 2 5.5985 12.0768 11.7516
134 2 7.50545 0.111953 3.30602
135 2 5.80607 9.42769 9.38452
136 2 5.06495 12.2898 1.58493
137 2 9.09728 11.1513 1.66144
138 2 11.125 0.8781 9.3075
139 2 4.16806 7.73936 11.5939
140 2 3.07743 2.43659 1.4799
141 2 10.9895 10.6899 5.07455
142 2 3.69754 6.71814 2.67684
143 2 10.9151 10.049 10.733
144 2 10.6661 5.98528 4.52541
145 2 0.793867 4.2623 1.49751
146 2 1.17732 6.07437 3.98963
147 2 9.94852 8.54429 2.71809
148 2 9.05543 5.93395 10.7668
149 2 7.32336 3.92094 2.03783
150 2 3.60255 3.94329 9.42858
151 2 5.62057 5.68806 6.21822
152 2 3.06979 10.0852 4.04593
153 2 6.6558 4.18517 5.02358
154 2 11.7835 2.48395 11.7895
155 2 6.47248 7.45009 4.8421
156 2 6.60464 5.09255 9.7693
157 2 2.60137 6.86661 5.72225
158 2 9.91625 8.1549 6.4036
159 2 7.86567 5.00682 7.27924
160 2 4.89543 1.32392 11.2408
161 2 2.25449 11.6328 3.94825
162 2 1.72717 6.59458 9.58999
163 2 6.25591 9.07766 1.0421
164 2 11.2019 7.17016 11.0788
165 2 6.91033 3.42979 7.935
166 2 7.5 1.292 9.488
167 2 0.998557 2.60106 6.58164
168 2 9.5524 1.43371 5.21658
169 2 9.33163 2.47152 10.8328
170 2 1.8346 9.08956 0.383376
171 2 11.8739 4.06206 7.69523
172 2 11.8106 12.1308 1.09182
173 2 8.00192 2.23626 0.757704
174 2 8.64926 9.21755 8.00867
175 2 3.11378 11.5432 7.26703
176 2 7.82774 10.786 4.33627
177 2 6.31174 8.17032 7.32759
178 2 7.93909 10.4817 10.7708
179 2 4.88602 1.17297 5.0676
180 2 2.57299 12.0674 1.23381
181 2 5.01851 11.5281 7.45129
182 2 9.60186 5.93848 0.430724
183 2 2.03205 12.0566 10.2184
184 2 5.70033 2.18064 3.72951
185 2 9.44942 7.5067 0.685014
186 2 11.1062 6.66843 8.40569
187 2 1.48574 6.72197 11.5444
188 2 0.344373 9.49703 10.9755
189 2 10.0976 11.9648 7.26432
190 2 1.30962 2.72894 3.99686
191 2 9.40121 3.01782 3.85582
192 2 0.327096 9.56335 6.8544
