ITEM: TIMESTEP
0
ITEM: NUMBER OF ATOMS
192
ITEM: BOX BOUNDS xy xz yz pp pp pp
0.0000000000000000e+00 1.2444699999999999e+01 0.0000000000000000e+00
0.0000000000000000e+00 1.2444699999999999e+01 0.0000000000000000e+00
0.0000000000000000e+00 1.2444699999999999e+01 0.0000000000000000e+00
ITEM: ATOMS id type x y z
1 1 11.83 2.56 2.18
2 1 5.36 6 1.81
3 1 12.17 7.34 2.71
4 1 3.38 4.28 4.84
5 1 4.54 11.73 11.9
6 1 7.34 0.18 2.18
7 1 5.73 9.9 10.31
8 1 5.32 11.19 1.83
9 1 9.39 11.14 1.1
10 1 12.06 0.64 8.92
11 1 5.01 7.72 11.74
12 1 3.64 3.19 1.08
13 1 11.88 10.9 4.7
14 1 3.88 8.05 2.51
15 1 9.82 9.16 10.18
16 1 11 5.31 5.17
17 1 0.97 4.12 0.84
18 1 1.24 5.99 4.76
19 1 10.1 9.09 3.32
20 1 8.39 5.72 10.39
21 1 8.06 4.72 1.3
22 1 3.23 3.34 8.26
23 1 5.02 6.21 7.29
24 1 3.94 10.55 3.95
25 1 6.25 4.56 4.21
26 1 12.18 2.35 11.11
27 1 6.76 8.57 4.07
28 1 5.87 5.84 9.79
29 1 2.18 6.91 6.99
30 1 10.89 7.69 6.78
31 1 8.03 4.28 6.57
32 1 5.29 1.92 11.56
33 1 1.53 12.16 3.45
34 1 2.04 5.49 9.71
35 1 6.66 9.05 1.21
36 1 11.75 6.18 11.01
37 1 6.11 3.07 7.96
38 1 8.22 1.38 9.43
39 1 1.31 2.02 7.09
40 1 9.48 2.11 5.92
41 1 9.33 3.34 10.97
42 1 1.31 8.49 0.81
43 1 11.25 3.48 7.51
44 1 11.7 0.33 0.6
45 1 7.63 2.04 0.28
46 1 8.86 9.52 7.4
47 1 2.01 11.54 6.89
48 1 8.02 11.27 4.66
49 1 5.82 9.18 7.71
50 1 8.11 11.19 11.22
51 1 5.94 0.84 5.91
52 1 1.88 11.66 0.64
53 1 4.66 11.28 6.73
54 1 10.32 6.26 0.89
55 1 2.01 11.07 10.33
56 1 5.36 2.06 3.14
57 1 8.56 7.59 12.17
58 1 10.51 5.81 8.66
59 1 2.37 6.23 12.1
60 1 0.3 8.77 10.05
61 1 9.47 12.13 7.57
62 1 1.41 2.32 4.17
63 1 9.69 3.69 3.56
64 1 0.75 9.22 7.39
65 2 11.09 2.87 2.74
66 2 5.51 5.51 2.6
67 2 0.24 6.8 3.29
68 2 4.28 4.19 4.46
69 2 3.63 11.56 11.76
70 2 6.53 12.07 1.99
71 2 5.37 9.14 10.85
72 2 5.74 10.31 1.64
73 2 8.71 11.07 0.41
74 2 0.27 1.04 8.27
75 2 5.46 7.08 11.15
76 2 3.84 4.17 1.06
77 2 11.55 10.19 4.15
78 2 3 8.17 2.14
79 2 9.53 10.04 10.56
80 2 11.18 4.84 6.05
81 2 0.68 3.76 12.44
82 2 0.43 5.51 4.88
83 2 9.51 9.48 3.94
84 2 9.08 5.89 9.68
85 2 7.92 3.83 0.8
86 2 4.23 3.22 8.21
87 2 5.27 5.9 8.19
88 2 4.44 10.9 3.14
89 2 6.93 4.56 4.89
90 2 11.88 1.61 11.75
91 2 6.79 8.54 3.09
92 2 5.62 4.99 10.13
93 2 3.09 6.66 6.98
94 2 11.73 8.22 6.86
95 2 8.4 3.45 6.18
96 2 4.64 2.37 12.16
97 2 0.74 11.69 3.86
98 2 1.1 5.3 9.72
99 2 7.54 9.11 0.83
100 2 11.36 6.2 11.9
101 2 5.85 2.21 7.53
102 2 8.81 2.01 9.89
103 2 2.17 2.43 7.46
104 2 10.1 2.53 6.55
105 2 9.07 4.29 10.91
106 2 0.64 8.13 1.45
107 2 11.12 4.2 8.14
108 2 11.03 12.03 0.58
109 2 6.83 1.84 12.19
110 2 9.13 10.45 7.25
111 2 1.76 12.44 6.8
112 2 7.37 11.88 5.08
113 2 5.59 8.29 7.44
114 2 8.14 12.12 10.86
115 2 5.48 0.06 6.32
116 2 0.99 11.99 0.41
117 2 4.54 10.95 5.79
118 2 10.94 6.29 1.65
119 2 2.52 10.55 9.76
120 2 4.74 2.41 2.42
121 2 8.84 8.27 11.56
122 2 10.89 6.06 9.58
123 2 2.15 5.99 11.18
124 2 0.49 9.06 9.13
125 2 8.69 12.34 8.15
126 2 1.76 1.44 4.07
127 2 10.05 4.44 4.1
128 2 1.44 8.49 7.32
129 2 12.25 3.32 1.68
130 2 6.27 6.22 1.56
131 2 11.5 7.85 3.14
132 2 2.96 3.44 4.61
133 2 5.04 11.17 11.3
134 2 7.6 12.39 3.03
135 2 5.94 9.68 9.37
136 2 4.93 11.46 0.96
137 2 8.92 11.68 1.69
138 2 12.07 1.36 9.54
139 2 4.17 7.28 11.8
140 2 2.67 3.09 1.05
141 2 11.89 10.59 5.56
142 2 4.27 7.23 2.16
143 2 10.8 9.22 10.18
144 2 10.68 6.2 5.44
145 2 1.51 4.9 0.53
146 2 1.94 5.36 4.61
147 2 10.02 9.64 2.47
148 2 8.41 6.43 11.04
149 2 8.58 4.29 2.01
150 2 3.12 4.28 8.41
151 2 5.12 5.54 6.6
152 2 3.97 9.58 3.89
153 2 6.17 3.63 3.9
154 2 11.4 2.92 10.99
155 2 5.96 8.02 4.26
156 2 6.81 5.9 9.83
157 2 1.83 6.59 6.16
158 2 10.19 8.36 6.88
159 2 8.74 4.67 7.12
160 2 4.84 1.08 11.38
161 2 2.38 11.71 3.7
162 2 2.02 6.1 8.92
163 2 6.05 8.48 0.61
164 2 12.12 7.05 10.81
165 2 6.81 3.46 7.31
166 2 7.52 1.99 9.1
167 2 1.25 2.26 6.18
168 2 9.31 1.19 6.35
169 2 8.84 2.9 11.69
170 2 1.39 9.44 0.85
171 2 12.13 3.22 7.5
172 2 11.38 0.95 1.34
173 2 7.43 1.82 1.24
174 2 9.15 9.43 8.28
175 2 2.97 11.66 6.88
176 2 7.5 10.43 4.47
177 2 6.69 9.4 7.47
178 2 7.29 10.77 10.93
179 2 5.45 1.07 5.12
180 2 1.92 11.57 1.62
181 2 5.05 10.55 7.26
182 2 9.73 5.52 1.11
183 2 1.73 11.85 9.82
184 2 6.02 1.57 2.67
185 2 9.34 7.2 0.21
186 2 10.71 6.56 7.97
187 2 1.86 7.03 12.37
188 2 1.08 9.16 10.59
189 2 10.19 12.39 8.15
190 2 0.92 2.56 3.28
191 2 9.34 3.01 4.17
192 2 1.11 10.09 7.21
ITEM: TIMESTEP
100
ITEM: NUMBER OF ATOMS
192
ITEM: BOX BOUNDS xy xz yz pp pp pp
0.0000000000000000e+00 1.2444699999999999e+01 0.0000000000000000e+00
0.0000000000000000e+00 1.2444699999999999e+01 0.0000000000000000e+00
0.0000000000000000e+00 1.2444699999999999e+01 0.0000000000000000e+00
ITEM: ATOMS id type x y z
1 1 11.8413 2.2741 2.43266
2 1 5.42613 5.94233 1.82765
3 1 12.2333 7.31637 2.67963
4 1 3.08546 4.37748 4.76388
5 1 4.56203 11.9175 11.6046
6 1 7.57617 0.244152 2.6215
7 1 5.72601 9.92881 10.3091
8 1 5.39104 11.2137 1.70379
9 1 9.43836 10.9018 1.07207
10 1 11.8506 0.386312 8.96252
11 1 5.19482 7.66848 11.7439
12 1 3.55513 3.25352 1.32019
13 1 11.9502 10.7656 4.7487
14 1 3.46121 7.98715 2.85459
15 1 9.84579 9.42032 10.2978
16 1 11.1182 5.2113 5.19415
17 1 0.788539 3.93236 0.539918
18 1 1.17409 6.1107 4.61986
19 1 10.2058 9.23774 3.20062
20 1 8.32648 5.74447 10.2952
21 1 8.21595 4.51244 1.4984
22 1 3.22477 3.43003 8.61725
23 1 5.12263 6.31324 7.03421
24 1 3.8491 10.6102 3.98697
25 1 6.10556 4.73325 4.41324
26 1 11.9776 2.35434 11.1458
27 1 6.80066 8.64449 4.06359
28 1 5.64699 5.76073 9.98418
29 1 2.45167 6.93518 7.07539
30 1 10.6288 7.74226 6.82594
31 1 7.92491 4.37288 6.6448
32 1 5.30169 2.10409 11.8378
33 1 1.77487 12.044 3.69223
34 1 1.93192 5.82061 9.42964
35 1 6.89238 8.95589 1.1959
36 1 11.6924 6.42069 10.8983
37 1 5.94577 2.97854 8.05809
38 1 8.23699 1.2523 9.28885
39 1 1.43534 2.01298 7.01375
40 1 9.40854 2.17457 5.9011
41 1 9.39999 3.07307 10.7913
42 1 1.5049 8.67599 0.769608
43 1 11.188 3.46494 7.29795
44 1 11.8972 0.36766 0.434788
45 1 7.82207 2.01378 0.0571763
46 1 8.67006 9.55506 7.48021
47 1 1.92537 11.6575 6.72742
48 1 7.67182 11.3025 4.80958
49 1 5.95231 8.85608 7.59846
50 1 7.98359 11.4211 11.0767
51 1 5.82752 1.27529 5.55621
52 1 1.87729 11.2892 1.00771
53 1 4.60955 11.0628 6.42972
54 1 10.5138 6.20752 1.04989
55 1 2.04841 11.0499 10.3299
56 1 5.38753 2.28559 3.12588
57 1 8.716 7.78757 12.0773
58 1 10.6089 5.63262 8.59034
59 1 2.46072 6.35004 12.3328
60 1 0.259536 8.82266 10.2135
61 1 9.35936 12.2907 7.43293
62 1 1.70015 2.08895 4.42748
63 1 9.67934 3.53042 3.45486
64 1 0.72064 9.00832 7.15855
65 2 11.0009 2.73689 2.64055
66 2 6.09362 5.68368 2.42996
67 2 0.338423 6.8023 3.31749
68 2 4.03282 4.5756 4.57224
69 2 3.63832 12.0532 11.5293
70 2 6.70201 12.2389 2.30346
71 2 5.49661 9.13743 10.8029
72 2 5.94455 10.4599 1.57542
73 2 8.93859 10.6557 0.27022
74 2 0.0841332 0.662242 8.25744
75 2 5.08556 6.96385 10.9786
76 2 3.78094 4.23817 1.45848
77 2 11.2163 10.3769 4.26464
78 2 2.9932 8.028 1.99359
79 2 9.45722 10.3463 10.4961
80 2 11.2093 4.44195 5.90554
81 2 0.5081 3.46594 12.1843
82 2 0.331255 5.62537 4.72231
83 2 9.58 8.78513 3.77333
84 2 9.10367 5.79473 9.68123
85 2 8.21278 3.61911 1.01293
86 2 4.14851 3.67451 8.40267
87 2 5.23417 6.01017 7.98327
88 2 4.42398 10.9926 3.23255
89 2 6.83289 4.5336 5.01599
90 2 11.9294 1.56237 11.6388
91 2 6.78549 8.66429 3.08209
92 2 5.27193 4.88127 10.0168
93 2 3.32099 6.5587 6.94896
94 2 11.4425 8.35024 6.95615
95 2 8.46612 3.5464 6.49619
96 2 4.60301 2.47549 12.4333
97 2 0.99342 11.5696 3.99349
98 2 1.02509 5.74538 9.76996
99 2 7.60446 8.5537 0.69327
100 2 11.3518 6.14198 11.7454
101 2 5.89672 2.62029 7.15404
102 2 8.68978 1.96149 9.78851
103 2 2.22563 2.4499 7.46554
104 2 10.071 2.35783 6.58226
105 2 9.09826 3.93794 10.5729
106 2 0.894558 8.32898 1.45849
107 2 11.1205 4.22279 7.94285
108 2 11.0852 12.2623 0.577084
109 2 6.78914 1.95086 12.2756
110 2 8.75335 10.5703 7.28019
111 2 1.72542 0.0691057 7.12086
112 2 7.40125 11.8665 5.54722
113 2 5.73109 7.97147 7.30789
114 2 7.96825 12.1737 10.3828
115 2 5.30858 0.552767 5.83097
116 2 1.10118 11.6258 0.539882
117 2 4.39339 10.8566 5.46457
118 2 11.2775 6.46466 1.63326
119 2 2.40891 10.9524 9.488
120 2 4.65054 2.638 2.56058
121 2 9.22035 8.49226 11.5984
122 2 11.0199 6.09645 9.38521
123 2 2.32725 6.31092 11.3931
124 2 0.544354 8.6688 9.31928
125 2 9.16529 0.250945 8.3351
126 2 1.7271 1.16556 4.06184
127 2 10.1181 4.38091 3.80182
128 2 1.53994 8.32846 7.03968
129 2 0.0631816 2.87844 2.00212
130 2 5.88708 6.12502 0.982469
131 2 11.7837 7.97816 3.183
132 2 2.89707 3.52076 4.30611
133 2 4.79791 11.1992 10.9114
134 2 7.72235 12.3247 3.50338
135 2 5.6186 9.64998 9.36585
136 2 5.0437 11.4802 0.821551
137 2 8.78524 11.4272 1.49666
138 2 12.0098 0.959469 9.69991
139 2 4.40354 7.45961 12.2153
140 2 2.60558 3.31524 1.144
141 2 12.3385 10.0395 5.18239
142 2 4.21913 7.35387 2.63934
143 2 10.8422 9.38049 10.2366
144 2 10.8564 6.00472 5.7458
145 2 1.02333 4.85418 0.232485
146 2 1.89453 5.39374 4.54874
147 2 9.81451 9.74182 2.42624
148 2 8.3814 6.51063 11.0056
149 2 8.72585 4.09561 2.21349
150 2 2.82847 4.23105 9.01998
151 2 5.5103 5.68385 6.4109
152 2 3.82314 9.63227 3.80335
153 2 5.99555 3.92518 3.86502
154 2 11.0959 2.68569 10.9739
155 2 5.92517 8.33704 4.33906
156 2 6.63546 5.58969 10.133
157 2 1.94216 6.48741 6.34162
158 2 9.86126 8.33396 6.96954
159 2 8.44574 5.16804 6.91673
160 2 5.02987 1.17562 11.5557
161 2 2.60261 11.6359 3.98695
162 2 1.90339 6.15038 8.51788
163 2 6.08287 8.68442 0.637739
164 2 12.2387 7.179 11.0963
165 2 6.51771 3.76298 8.09647
166 2 7.40874 1.64444 8.97176
167 2 1.69043 1.95003 6.05677
168 2 9.05416 1.2793 6.26303
169 2 8.78824 2.65974 11.4781
170 2 1.67526 9.60274 0.964278
171 2 12.0016 3.03424 7.37582
172 2 11.9748 1.03888 1.13403
173 2 8.1948 1.09319 0.218318
174 2 8.97048 9.50253 8.36731
175 2 2.96235 11.5909 6.74478
176 2 7.1586 10.4333 4.86061
177 2 6.87289 8.99707 7.41833
178 2 7.2033 10.8392 10.84
179 2 5.47556 1.56605 4.69868
180 2 1.74259 11.4387 1.97508
181 2 5.03838 10.2817 6.79987
182 2 10.1335 5.35287 1.21483
183 2 1.25621 11.6247 10.2222
184 2 5.90207 1.58217 2.70918
185 2 9.25683 7.15412 0.181664
186 2 10.7092 6.32669 7.97556
187 2 2.05111 7.22542 0.206343
188 2 0.901219 9.60797 10.3666
189 2 10.2834 12.1026 7.49789
190 2 0.690631 2.2885 4.20969
191 2 9.34399 3.0725 4.25299
192 2 1.05322 9.92695 7.08406
