ITEM: TIMESTEP
0
ITEM: NUMBER OF ATOMS
55296
ITEM: BOX BOUNDS xy xz yz pp pp pp
0.0000000000000000e+00 7.4668199999999999e+01 0.0000000000000000e+00
0.0000000000000000e+00 9.9557599999999994e+01 0.0000000000000000e+00
0.0000000000000000e+00 7.4668199999999999e+01 0.0000000000000000e+00
ITEM: ATOMS id type x y z
140 2 2.67 3.09 1.05
9356 2 2.67 3.09 13.4947
1292 2 2.67 15.5347 1.05
10508 2 2.67 15.5347 13.4947
332 2 15.1147 3.09 1.05
9548 2 15.1147 3.09 13.4947
1484 2 15.1147 15.5347 1.05
10700 2 15.1147 15.5347 13.4947
62 1 1.41 2.32 4.17
126 2 1.76 1.44 4.07
167 2 1.25 2.26 6.18
190 2 0.92 2.56 3.28
9278 1 1.41 2.32 16.6147
9342 2 1.76 1.44 16.5147
9383 2 1.25 2.26 18.6247
9406 2 0.92 2.56 15.7247
1214 1 1.41 14.7647 4.17
1278 2 1.76 13.8847 4.07
1319 2 1.25 14.7047 6.18
1342 2 0.92 15.0047 3.28
10430 1 1.41 14.7647 16.6147
10494 2 1.76 13.8847 16.5147
10535 2 1.25 14.7047 18.6247
10558 2 0.92 15.0047 15.7247
254 1 13.8547 2.32 4.17
318 2 14.2047 1.44 4.07
359 2 13.6947 2.26 6.18
382 2 13.3647 2.56 3.28
9470 1 13.8547 2.32 16.6147
9534 2 14.2047 1.44 16.5147
9575 2 13.6947 2.26 18.6247
9598 2 13.3647 2.56 15.7247
1406 1 13.8547 14.7647 4.17
1470 2 14.2047 13.8847 4.07
1511 2 13.6947 14.7047 6.18
1534 2 13.3647 15.0047 3.28
10622 1 13.8547 14.7647 16.6147
10686 2 14.2047 13.8847 16.5147
10727 2 13.6947 14.7047 18.6247
10750 2 13.3647 15.0047 15.7247
39 1 1.31 2.02 7.09
74 2 0.27 1.04 8.27
103 2 2.17 2.43 7.46
1191 1 1.31 14.4647 7.09
1226 2 0.27 13.4847 8.27
1255 2 2.17 14.8747 7.46
231 1 13.7547 2.02 7.09
266 2 12.7147 1.04 8.27
295 2 14.6147 2.43 7.46
1383 1 13.7547 14.4647 7.09
1418 2 12.7147 13.4847 8.27
1447 2 14.6147 14.8747 7.46
12 1 3.64 3.19 1.08
17 1 0.97 4.12 0.84
76 2 3.84 4.17 1.06
145 2 1.51 4.9 0.53
9228 1 3.64 3.19 13.5247
9233 1 0.97 4.12 13.2847
9292 2 3.84 4.17 13.5047
9361 2 1.51 4.9 12.9747
1164 1 3.64 15.6347 1.08
1169 1 0.97 16.5647 0.84
1228 2 3.84 16.6147 1.06
1297 2 1.51 17.3447 0.53
10380 1 3.64 15.6347 13.5247
10385 1 0.97 16.5647 13.2847
10444 2 3.84 16.6147 13.5047
10513 2 1.51 17.3447 12.9747
204 1 16.0847 3.19 1.08
209 1 13.4147 4.12 0.84
268 2 16.2847 4.17 1.06
337 2 13.9547 4.9 0.53
9420 1 16.0847 3.19 13.5247
9425 1 13.4147 4.12 13.2847
9484 2 16.2847 4.17 13.5047
9553 2 13.9547 4.9 12.9747
1356 1 16.0847 15.6347 1.08
1361 1 13.4147 16.5647 0.84
1420 2 16.2847 16.6147 1.06
1489 2 13.9547 17.3447 0.53
10572 1 16.0847 15.6347 13.5247
10577 1 13.4147 16.5647 13.2847
10636 2 16.2847 16.6147 13.5047
10705 2 13.9547 17.3447 12.9747
4 1 3.38 4.28 4.84
18 1 1.24 5.99 4.76
82 2 0.43 5.51 4.88
132 2 2.96 3.44 4.61
146 2 1.94 5.36 4.61
9220 1 3.38 4.28 17.2847
9234 1 1.24 5.99 17.2047
9298 2 0.43 5.51 17.3247
9348 2 2.96 3.44 17.0547
9362 2 1.94 5.36 17.0547
1156 1 3.38 16.7247 4.84
1170 1 1.24 18.4347 4.76
1234 2 0.43 17.9547 4.88
1284 2 2.96 15.8847 4.61
1298 2 1.94 17.8047 4.61
10372 1 3.38 16.7247 17.2847
10386 1 1.24 18.4347 17.2047
10450 2 0.43 17.9547 17.3247
10500 2 2.96 15.8847 17.0547
10514 2 1.94 17.8047 17.0547
196 1 15.8247 4.28 4.84
210 1 13.6847 5.99 4.76
274 2 12.8747 5.51 4.88
324 2 15.4047 3.44 4.61
338 2 14.3847 5.36 4.61
9412 1 15.8247 4.28 17.2847
9426 1 13.6847 5.99 17.2047
9490 2 12.8747 5.51 17.3247
9540 2 15.4047 3.44 17.0547
9554 2 14.3847 5.36 17.0547
1348 1 15.8247 16.7247 4.84
1362 1 13.6847 18.4347 4.76
1426 2 12.8747 17.9547 4.88
1476 2 15.4047 15.8847 4.61
1490 2 14.3847 17.8047 4.61
10564 1 15.8247 16.7247 17.2847
10578 1 13.6847 18.4347 17.2047
10642 2 12.8747 17.9547 17.3247
10692 2 15.4047 15.8847 17.0547
10706 2 14.3847 17.8047 17.0547
22 1 3.23 3.34 8.26
150 2 3.12 4.28 8.41
162 2 2.02 6.1 8.92
1174 1 3.23 15.7847 8.26
1302 2 3.12 16.7247 8.41
1314 2 2.02 18.5447 8.92
214 1 15.6747 3.34 8.26
342 2 15.5647 4.28 8.41
354 2 14.4647 6.1 8.92
1366 1 15.6747 15.7847 8.26
1494 2 15.5647 16.7247 8.41
1506 2 14.4647 18.5447 8.92
34 1 2.04 5.49 9.71
81 2 0.68 3.76 12.44
98 2 1.1 5.3 9.72
123 2 2.15 5.99 11.18
1186 1 2.04 17.9347 9.71
1233 2 0.68 16.2047 12.44
1250 2 1.1 17.7447 9.72
1275 2 2.15 18.4347 11.18
226 1 14.4847 5.49 9.71
273 2 13.1247 3.76 12.44
290 2 13.5447 5.3 9.72
315 2 14.5947 5.99 11.18
1378 1 14.4847 17.9347 9.71
1425 2 13.1247 16.2047 12.44
1442 2 13.5447 17.7447 9.72
1467 2 14.5947 18.4347 11.18
14 1 3.88 8.05 2.51
42 1 1.31 8.49 0.81
78 2 3 8.17 2.14
106 2 0.64 8.13 1.45
9230 1 3.88 8.05 14.9547
9258 1 1.31 8.49 13.2547
9294 2 3 8.17 14.5847
9322 2 0.64 8.13 13.8947
1166 1 3.88 20.4947 2.51
1194 1 1.31 20.9347 0.81
1230 2 3 20.6147 2.14
1258 2 0.64 20.5747 1.45
10382 1 3.88 20.4947 14.9547
10410 1 1.31 20.9347 13.2547
10446 2 3 20.6147 14.5847
10474 2 0.64 20.5747 13.8947
206 1 16.3247 8.05 2.51
234 1 13.7547 8.49 0.81
270 2 15.4447 8.17 2.14
298 2 13.0847 8.13 1.45
9422 1 16.3247 8.05 14.9547
9450 1 13.7547 8.49 13.2547
9486 2 15.4447 8.17 14.5847
9514 2 13.0847 8.13 13.8947
1358 1 16.3247 20.4947 2.51
1386 1 13.7547 20.9347 0.81
1422 2 15.4447 20.6147 2.14
1450 2 13.0847 20.5747 1.45
10574 1 16.3247 20.4947 14.9547
10602 1 13.7547 20.9347 13.2547
10638 2 15.4447 20.6147 14.5847
10666 2 13.0847 20.5747 13.8947
67 2 0.24 6.8 3.29
157 2 1.83 6.59 6.16
9283 2 0.24 6.8 15.7347
9373 2 1.83 6.59 18.6047
1219 2 0.24 19.2447 3.29
1309 2 1.83 19.0347 6.16
10435 2 0.24 19.2447 15.7347
10525 2 1.83 19.0347 18.6047
259 2 12.6847 6.8 3.29
349 2 14.2747 6.59 6.16
9475 2 12.6847 6.8 15.7347
9565 2 14.2747 6.59 18.6047
1411 2 12.6847 19.2447 3.29
1501 2 14.2747 19.0347 6.16
10627 2 12.6847 19.2447 15.7347
10717 2 14.2747 19.0347 18.6047
29 1 2.18 6.91 6.99
64 1 0.75 9.22 7.39
93 2 3.09 6.66 6.98
124 2 0.49 9.06 9.13
128 2 1.44 8.49 7.32
1181 1 2.18 19.3547 6.99
1216 1 0.75 21.6647 7.39
1245 2 3.09 19.1047 6.98
1276 2 0.49 21.5047 9.13
1280 2 1.44 20.9347 7.32
221 1 14.6247 6.91 6.99
256 1 13.1947 9.22 7.39
285 2 15.5347 6.66 6.98
316 2 12.9347 9.06 9.13
320 2 13.8847 8.49 7.32
1373 1 14.6247 19.3547 6.99
1408 1 13.1947 21.6647 7.39
1437 2 15.5347 19.1047 6.98
1468 2 12.9347 21.5047 9.13
1472 2 13.8847 20.9347 7.32
59 1 2.37 6.23 12.1
60 1 0.3 8.77 10.05
187 2 1.86 7.03 12.37
188 2 1.08 9.16 10.59
1211 1 2.37 18.6747 12.1
1212 1 0.3 21.2147 10.05
1339 2 1.86 19.4747 12.37
1340 2 1.08 21.6047 10.59
251 1 14.8147 6.23 12.1
252 1 12.7447 8.77 10.05
379 2 14.3047 7.03 12.37
380 2 13.5247 9.16 10.59
1403 1 14.8147 18.6747 12.1
1404 1 12.7447 21.2147 10.05
1531 2 14.3047 19.4747 12.37
1532 2 13.5247 21.6047 10.59
52 1 1.88 11.66 0.64
116 2 0.99 11.99 0.41
170 2 1.39 9.44 0.85
180 2 1.92 11.57 1.62
9268 1 1.88 11.66 13.0847
9332 2 0.99 11.99 12.8547
9386 2 1.39 9.44 13.2947
9396 2 1.92 11.57 14.0647
1204 1 1.88 24.1047 0.64
1268 2 0.99 24.4347 0.41
1322 2 1.39 21.8847 0.85
1332 2 1.92 24.0147 1.62
10420 1 1.88 24.1047 13.0847
10484 2 0.99 24.4347 12.8547
10538 2 1.39 21.8847 13.2947
10548 2 1.92 24.0147 14.0647
244 1 14.3247 11.66 0.64
308 2 13.4347 11.99 0.41
362 2 13.8347 9.44 0.85
372 2 14.3647 11.57 1.62
9460 1 14.3247 11.66 13.0847
9524 2 13.4347 11.99 12.8547
9578 2 13.8347 9.44 13.2947
9588 2 14.3647 11.57 14.0647
1396 1 14.3247 24.1047 0.64
1460 2 13.4347 24.4347 0.41
1514 2 13.8347 21.8847 0.85
1524 2 14.3647 24.0147 1.62
10612 1 14.3247 24.1047 13.0847
10676 2 13.4347 24.4347 12.8547
10730 2 13.8347 21.8847 13.2947
10740 2 14.3647 24.0147 14.0647
24 1 3.94 10.55 3.95
33 1 1.53 12.16 3.45
97 2 0.74 11.69 3.86
152 2 3.97 9.58 3.89
161 2 2.38 11.71 3.7
9240 1 3.94 10.55 16.3947
9249 1 1.53 12.16 15.8947
9313 2 0.74 11.69 16.3047
9368 2 3.97 9.58 16.3347
9377 2 2.38 11.71 16.1447
1176 1 3.94 22.9947 3.95
1185 1 1.53 24.6047 3.45
1249 2 0.74 24.1347 3.86
1304 2 3.97 22.0247 3.89
1313 2 2.38 24.1547 3.7
10392 1 3.94 22.9947 16.3947
10401 1 1.53 24.6047 15.8947
10465 2 0.74 24.1347 16.3047
10520 2 3.97 22.0247 16.3347
10529 2 2.38 24.1547 16.1447
216 1 16.3847 10.55 3.95
225 1 13.9747 12.16 3.45
289 2 13.1847 11.69 3.86
344 2 16.4147 9.58 3.89
353 2 14.8247 11.71 3.7
9432 1 16.3847 10.55 16.3947
9441 1 13.9747 12.16 15.8947
9505 2 13.1847 11.69 16.3047
9560 2 16.4147 9.58 16.3347
9569 2 14.8247 11.71 16.1447
1368 1 16.3847 22.9947 3.95
1377 1 13.9747 24.6047 3.45
1441 2 13.1847 24.1347 3.86
1496 2 16.4147 22.0247 3.89
1505 2 14.8247 24.1547 3.7
10584 1 16.3847 22.9947 16.3947
10593 1 13.9747 24.6047 15.8947
10657 2 13.1847 24.1347 16.3047
10712 2 16.4147 22.0247 16.3347
10721 2 14.8247 24.1547 16.1447
47 1 2.01 11.54 6.89
111 2 1.76 12.44 6.8
175 2 2.97 11.66 6.88
192 2 1.11 10.09 7.21
1199 1 2.01 23.9847 6.89
1263 2 1.76 24.8847 6.8
1327 2 2.97 24.1047 6.88
1344 2 1.11 22.5347 7.21
239 1 14.4547 11.54 6.89
303 2 14.2047 12.44 6.8
367 2 15.4147 11.66 6.88
384 2 13.5547 10.09 7.21
1391 1 14.4547 23.9847 6.89
1455 2 14.2047 24.8847 6.8
1519 2 15.4147 24.1047 6.88
1536 2 13.5547 22.5347 7.21
55 1 2.01 11.07 10.33
69 2 3.63 11.56 11.76
119 2 2.52 10.55 9.76
183 2 1.73 11.85 9.82
1207 1 2.01 23.5147 10.33
1221 2 3.63 24.0047 11.76
1271 2 2.52 22.9947 9.76
1335 2 1.73 24.2947 9.82
247 1 14.4547 11.07 10.33
261 2 16.0747 11.56 11.76
311 2 14.9647 10.55 9.76
375 2 14.1747 11.85 9.82
1399 1 14.4547 23.5147 10.33
1413 2 16.0747 24.0047 11.76
1463 2 14.9647 22.9947 9.76
1527 2 14.1747 24.2947 9.82
6 1 7.34 0.18 2.18
45 1 7.63 2.04 0.28
120 2 4.74 2.41 2.42
173 2 7.43 1.82 1.24
184 2 6.02 1.57 2.67
9222 1 7.34 0.18 14.6247
9261 1 7.63 2.04 12.7247
9336 2 4.74 2.41 14.8647
9389 2 7.43 1.82 13.6847
9400 2 6.02 1.57 15.1147
1158 1 7.34 12.6247 2.18
1197 1 7.63 14.4847 0.28
1272 2 4.74 14.8547 2.42
1325 2 7.43 14.2647 1.24
1336 2 6.02 14.0147 2.67
10374 1 7.34 12.6247 14.6247
10413 1 7.63 14.4847 12.7247
10488 2 4.74 14.8547 14.8647
10541 2 7.43 14.2647 13.6847
10552 2 6.02 14.0147 15.1147
198 1 19.7847 0.18 2.18
237 1 20.0747 2.04 0.28
312 2 17.1847 2.41 2.42
365 2 19.8747 1.82 1.24
376 2 18.4647 1.57 2.67
9414 1 19.7847 0.18 14.6247
9453 1 20.0747 2.04 12.7247
9528 2 17.1847 2.41 14.8647
9581 2 19.8747 1.82 13.6847
9592 2 18.4647 1.57 15.1147
1350 1 19.7847 12.6247 2.18
1389 1 20.0747 14.4847 0.28
1464 2 17.1847 14.8547 2.42
1517 2 19.8747 14.2647 1.24
1528 2 18.4647 14.0147 2.67
10566 1 19.7847 12.6247 14.6247
10605 1 20.0747 14.4847 12.7247
10680 2 17.1847 14.8547 14.8647
10733 2 19.8747 14.2647 13.6847
10744 2 18.4647 14.0147 15.1147
51 1 5.94 0.84 5.91
56 1 5.36 2.06 3.14
179 2 5.45 1.07 5.12
9267 1 5.94 0.84 18.3547
9272 1 5.36 2.06 15.5847
9395 2 5.45 1.07 17.5647
1203 1 5.94 13.2847 5.91
1208 1 5.36 14.5047 3.14
1331 2 5.45 13.5147 5.12
10419 1 5.94 13.2847 18.3547
10424 1 5.36 14.5047 15.5847
10547 2 5.45 13.5147 17.5647
243 1 18.3847 0.84 5.91
248 1 17.8047 2.06 3.14
371 2 17.8947 1.07 5.12
9459 1 18.3847 0.84 18.3547
9464 1 17.8047 2.06 15.5847
9587 2 17.8947 1.07 17.5647
1395 1 18.3847 13.2847 5.91
1400 1 17.8047 14.5047 3.14
1523 2 17.8947 13.5147 5.12
10611 1 18.3847 13.2847 18.3547
10616 1 17.8047 14.5047 15.5847
10739 2 17.8947 13.5147 17.5647
37 1 6.11 3.07 7.96
101 2 5.85 2.21 7.53
115 2 5.48 0.06 6.32
166 2 7.52 1.99 9.1
1189 1 6.11 15.5147 7.96
1253 2 5.85 14.6547 7.53
1267 2 5.48 12.5047 6.32
1318 2 7.52 14.4347 9.1
229 1 18.5547 3.07 7.96
293 2 18.2947 2.21 7.53
307 2 17.9247 0.06 6.32
358 2 19.9647 1.99 9.1
1381 1 18.5547 15.5147 7.96
1445 2 18.2947 14.6547 7.53
1459 2 17.9247 12.5047 6.32
1510 2 19.9647 14.4347 9.1
32 1 5.29 1.92 11.56
38 1 8.22 1.38 9.43
96 2 4.64 2.37 12.16
109 2 6.83 1.84 12.19
160 2 4.84 1.08 11.38
1184 1 5.29 14.3647 11.56
1190 1 8.22 13.8247 9.43
1248 2 4.64 14.8147 12.16
1261 2 6.83 14.2847 12.19
1312 2 4.84 13.5247 11.38
224 1 17.7347 1.92 11.56
230 1 20.6647 1.38 9.43
288 2 17.0847 2.37 12.16
301 2 19.2747 1.84 12.19
352 2 17.2847 1.08 11.38
1376 1 17.7347 14.3647 11.56
1382 1 20.6647 13.8247 9.43
1440 2 17.0847 14.8147 12.16
1453 2 19.2747 14.2847 12.19
1504 2 17.2847 13.5247 11.38
2 1 5.36 6 1.81
21 1 8.06 4.72 1.3
66 2 5.51 5.51 2.6
85 2 7.92 3.83 0.8
130 2 6.27 6.22 1.56
9218 1 5.36 6 14.2547
9237 1 8.06 4.72 13.7447
9282 2 5.51 5.51 15.0447
9301 2 7.92 3.83 13.2447
9346 2 6.27 6.22 14.0047
1154 1 5.36 18.4447 1.81
1173 1 8.06 17.1647 1.3
1218 2 5.51 17.9547 2.6
1237 2 7.92 16.2747 0.8
1282 2 6.27 18.6647 1.56
10370 1 5.36 18.4447 14.2547
10389 1 8.06 17.1647 13.7447
10434 2 5.51 17.9547 15.0447
10453 2 7.92 16.2747 13.2447
10498 2 6.27 18.6647 14.0047
194 1 17.8047 6 1.81
213 1 20.5047 4.72 1.3
258 2 17.9547 5.51 2.6
277 2 20.3647 3.83 0.8
322 2 18.7147 6.22 1.56
9410 1 17.8047 6 14.2547
9429 1 20.5047 4.72 13.7447
9474 2 17.9547 5.51 15.0447
9493 2 20.3647 3.83 13.2447
9538 2 18.7147 6.22 14.0047
1346 1 17.8047 18.4447 1.81
1365 1 20.5047 17.1647 1.3
1410 2 17.9547 17.9547 2.6
1429 2 20.3647 16.2747 0.8
1474 2 18.7147 18.6647 1.56
10562 1 17.8047 18.4447 14.2547
10581 1 20.5047 17.1647 13.7447
10626 2 17.9547 17.9547 15.0447
10645 2 20.3647 16.2747 13.2447
10690 2 18.7147 18.6647 14.0047
25 1 6.25 4.56 4.21
68 2 4.28 4.19 4.46
89 2 6.93 4.56 4.89
153 2 6.17 3.63 3.9
9241 1 6.25 4.56 16.6547
9284 2 4.28 4.19 16.9047
9305 2 6.93 4.56 17.3347
9369 2 6.17 3.63 16.3447
1177 1 6.25 17.0047 4.21
1220 2 4.28 16.6347 4.46
1241 2 6.93 17.0047 4.89
1305 2 6.17 16.0747 3.9
10393 1 6.25 17.0047 16.6547
10436 2 4.28 16.6347 16.9047
10457 2 6.93 17.0047 17.3347
10521 2 6.17 16.0747 16.3447
217 1 18.6947 4.56 4.21
260 2 16.7247 4.19 4.46
281 2 19.3747 4.56 4.89
345 2 18.6147 3.63 3.9
9433 1 18.6947 4.56 16.6547
9476 2 16.7247 4.19 16.9047
9497 2 19.3747 4.56 17.3347
9561 2 18.6147 3.63 16.3447
1369 1 18.6947 17.0047 4.21
1412 2 16.7247 16.6347 4.46
1433 2 19.3747 17.0047 4.89
1497 2 18.6147 16.0747 3.9
10585 1 18.6947 17.0047 16.6547
10628 2 16.7247 16.6347 16.9047
10649 2 19.3747 17.0047 17.3347
10713 2 18.6147 16.0747 16.3447
23 1 5.02 6.21 7.29
31 1 8.03 4.28 6.57
86 2 4.23 3.22 8.21
87 2 5.27 5.9 8.19
151 2 5.12 5.54 6.6
165 2 6.81 3.46 7.31
1175 1 5.02 18.6547 7.29
1183 1 8.03 16.7247 6.57
1238 2 4.23 15.6647 8.21
1239 2 5.27 18.3447 8.19
1303 2 5.12 17.9847 6.6
1317 2 6.81 15.9047 7.31
215 1 17.4647 6.21 7.29
223 1 20.4747 4.28 6.57
278 2 16.6747 3.22 8.21
279 2 17.7147 5.9 8.19
343 2 17.5647 5.54 6.6
357 2 19.2547 3.46 7.31
1367 1 17.4647 18.6547 7.29
1375 1 20.4747 16.7247 6.57
1430 2 16.6747 15.6647 8.21
1431 2 17.7147 18.3447 8.19
1495 2 17.5647 17.9847 6.6
1509 2 19.2547 15.9047 7.31
28 1 5.87 5.84 9.79
92 2 5.62 4.99 10.13
156 2 6.81 5.9 9.83
1180 1 5.87 18.2847 9.79
1244 2 5.62 17.4347 10.13
1308 2 6.81 18.3447 9.83
220 1 18.3147 5.84 9.79
284 2 18.0647 4.99 10.13
348 2 19.2547 5.9 9.83
1372 1 18.3147 18.2847 9.79
1436 2 18.0647 17.4347 10.13
1500 2 19.2547 18.3447 9.83
35 1 6.66 9.05 1.21
91 2 6.79 8.54 3.09
99 2 7.54 9.11 0.83
142 2 4.27 7.23 2.16
163 2 6.05 8.48 0.61
9251 1 6.66 9.05 13.6547
9307 2 6.79 8.54 15.5347
9315 2 7.54 9.11 13.2747
9358 2 4.27 7.23 14.6047
9379 2 6.05 8.48 13.0547
1187 1 6.66 21.4947 1.21
1243 2 6.79 20.9847 3.09
1251 2 7.54 21.5547 0.83
1294 2 4.27 19.6747 2.16
1315 2 6.05 20.9247 0.61
10403 1 6.66 21.4947 13.6547
10459 2 6.79 20.9847 15.5347
10467 2 7.54 21.5547 13.2747
10510 2 4.27 19.6747 14.6047
10531 2 6.05 20.9247 13.0547
227 1 19.1047 9.05 1.21
283 2 19.2347 8.54 3.09
291 2 19.9847 9.11 0.83
334 2 16.7147 7.23 2.16
355 2 18.4947 8.48 0.61
9443 1 19.1047 9.05 13.6547
9499 2 19.2347 8.54 15.5347
9507 2 19.9847 9.11 13.2747
9550 2 16.7147 7.23 14.6047
9571 2 18.4947 8.48 13.0547
1379 1 19.1047 21.4947 1.21
1435 2 19.2347 20.9847 3.09
1443 2 19.9847 21.5547 0.83
1486 2 16.7147 19.6747 2.16
1507 2 18.4947 20.9247 0.61
10595 1 19.1047 21.4947 13.6547
10651 2 19.2347 20.9847 15.5347
10659 2 19.9847 21.5547 13.2747
10702 2 16.7147 19.6747 14.6047
10723 2 18.4947 20.9247 13.0547
27 1 6.76 8.57 4.07
155 2 5.96 8.02 4.26
9243 1 6.76 8.57 16.5147
9371 2 5.96 8.02 16.7047
1179 1 6.76 21.0147 4.07
1307 2 5.96 20.4647 4.26
10395 1 6.76 21.0147 16.5147
10523 2 5.96 20.4647 16.7047
219 1 19.2047 8.57 4.07
347 2 18.4047 8.02 4.26
9435 1 19.2047 8.57 16.5147
9563 2 18.4047 8.02 16.7047
1371 1 19.2047 21.0147 4.07
1499 2 18.4047 20.4647 4.26
10587 1 19.2047 21.0147 16.5147
10715 2 18.4047 20.4647 16.7047
49 1 5.82 9.18 7.71
113 2 5.59 8.29 7.44
1201 1 5.82 21.6247 7.71
1265 2 5.59 20.7347 7.44
241 1 18.2647 9.18 7.71
305 2 18.0347 8.29 7.44
1393 1 18.2647 21.6247 7.71
1457 2 18.0347 20.7347 7.44
11 1 5.01 7.72 11.74
71 2 5.37 9.14 10.85
75 2 5.46 7.08 11.15
139 2 4.17 7.28 11.8
1163 1 5.01 20.1647 11.74
1223 2 5.37 21.5847 10.85
1227 2 5.46 19.5247 11.15
1291 2 4.17 19.7247 11.8
203 1 17.4547 7.72 11.74
263 2 17.8147 9.14 10.85
267 2 17.9047 7.08 11.15
331 2 16.6147 7.28 11.8
1355 1 17.4547 20.1647 11.74
1415 2 17.8147 21.5847 10.85
1419 2 17.9047 19.5247 11.15
1483 2 16.6147 19.7247 11.8
8 1 5.32 11.19 1.83
70 2 6.53 12.07 1.99
72 2 5.74 10.31 1.64
134 2 7.6 12.39 3.03
136 2 4.93 11.46 0.96
9224 1 5.32 11.19 14.2747
9286 2 6.53 12.07 14.4347
9288 2 5.74 10.31 14.0847
9350 2 7.6 12.39 15.4747
9352 2 4.93 11.46 13.4047
1160 1 5.32 23.6347 1.83
1222 2 6.53 24.5147 1.99
1224 2 5.74 22.7547 1.64
1286 2 7.6 24.8347 3.03
1288 2 4.93 23.9047 0.96
10376 1 5.32 23.6347 14.2747
10438 2 6.53 24.5147 14.4347
10440 2 5.74 22.7547 14.0847
10502 2 7.6 24.8347 15.4747
10504 2 4.93 23.9047 13.4047
200 1 17.7647 11.19 1.83
262 2 18.9747 12.07 1.99
264 2 18.1847 10.31 1.64
326 2 20.0447 12.39 3.03
328 2 17.3747 11.46 0.96
9416 1 17.7647 11.19 14.2747
9478 2 18.9747 12.07 14.4347
9480 2 18.1847 10.31 14.0847
9542 2 20.0447 12.39 15.4747
9544 2 17.3747 11.46 13.4047
1352 1 17.7647 23.6347 1.83
1414 2 18.9747 24.5147 1.99
1416 2 18.1847 22.7547 1.64
1478 2 20.0447 24.8347 3.03
1480 2 17.3747 23.9047 0.96
10568 1 17.7647 23.6347 14.2747
10630 2 18.9747 24.5147 14.4347
10632 2 18.1847 22.7547 14.0847
10694 2 20.0447 24.8347 15.4747
10696 2 17.3747 23.9047 13.4047
48 1 8.02 11.27 4.66
88 2 4.44 10.9 3.14
112 2 7.37 11.88 5.08
117 2 4.54 10.95 5.79
176 2 7.5 10.43 4.47
9264 1 8.02 11.27 17.1047
9304 2 4.44 10.9 15.5847
9328 2 7.37 11.88 17.5247
9333 2 4.54 10.95 18.2347
9392 2 7.5 10.43 16.9147
1200 1 8.02 23.7147 4.66
1240 2 4.44 23.3447 3.14
1264 2 7.37 24.3247 5.08
1269 2 4.54 23.3947 5.79
1328 2 7.5 22.8747 4.47
10416 1 8.02 23.7147 17.1047
10456 2 4.44 23.3447 15.5847
10480 2 7.37 24.3247 17.5247
10485 2 4.54 23.3947 18.2347
10544 2 7.5 22.8747 16.9147
240 1 20.4647 11.27 4.66
280 2 16.8847 10.9 3.14
304 2 19.8147 11.88 5.08
309 2 16.9847 10.95 5.79
368 2 19.9447 10.43 4.47
9456 1 20.4647 11.27 17.1047
9496 2 16.8847 10.9 15.5847
9520 2 19.8147 11.88 17.5247
9525 2 16.9847 10.95 18.2347
9584 2 19.9447 10.43 16.9147
1392 1 20.4647 23.7147 4.66
1432 2 16.8847 23.3447 3.14
1456 2 19.8147 24.3247 5.08
1461 2 16.9847 23.3947 5.79
1520 2 19.9447 22.8747 4.47
10608 1 20.4647 23.7147 17.1047
10648 2 16.8847 23.3447 15.5847
10672 2 19.8147 24.3247 17.5247
10677 2 16.9847 23.3947 18.2347
10736 2 19.9447 22.8747 16.9147
53 1 4.66 11.28 6.73
177 2 6.69 9.4 7.47
181 2 5.05 10.55 7.26
1205 1 4.66 23.7247 6.73
1329 2 6.69 21.8447 7.47
1333 2 5.05 22.9947 7.26
245 1 17.1047 11.28 6.73
369 2 19.1347 9.4 7.47
373 2 17.4947 10.55 7.26
1397 1 17.1047 23.7247 6.73
1521 2 19.1347 21.8447 7.47
1525 2 17.4947 22.9947 7.26
5 1 4.54 11.73 11.9
7 1 5.73 9.9 10.31
50 1 8.11 11.19 11.22
114 2 8.14 12.12 10.86
133 2 5.04 11.17 11.3
135 2 5.94 9.68 9.37
178 2 7.29 10.77 10.93
1157 1 4.54 24.1747 11.9
1159 1 5.73 22.3447 10.31
1202 1 8.11 23.6347 11.22
1266 2 8.14 24.5647 10.86
1285 2 5.04 23.6147 11.3
1287 2 5.94 22.1247 9.37
1330 2 7.29 23.2147 10.93
197 1 16.9847 11.73 11.9
199 1 18.1747 9.9 10.31
242 1 20.5547 11.19 11.22
306 2 20.5847 12.12 10.86
325 2 17.4847 11.17 11.3
327 2 18.3847 9.68 9.37
370 2 19.7347 10.77 10.93
1349 1 16.9847 24.1747 11.9
1351 1 18.1747 22.3447 10.31
1394 1 20.5547 23.6347 11.22
1458 2 20.5847 24.5647 10.86
1477 2 17.4847 23.6147 11.3
1479 2 18.3847 22.1247 9.37
1522 2 19.7347 23.2147 10.93
1 1 11.83 2.56 2.18
44 1 11.7 0.33 0.6
65 2 11.09 2.87 2.74
172 2 11.38 0.95 1.34
9217 1 11.83 2.56 14.6247
9260 1 11.7 0.33 13.0447
9281 2 11.09 2.87 15.1847
9388 2 11.38 0.95 13.7847
1153 1 11.83 15.0047 2.18
1196 1 11.7 12.7747 0.6
1217 2 11.09 15.3147 2.74
1324 2 11.38 13.3947 1.34
10369 1 11.83 15.0047 14.6247
10412 1 11.7 12.7747 13.0447
10433 2 11.09 15.3147 15.1847
10540 2 11.38 13.3947 13.7847
193 1 24.2747 2.56 2.18
236 1 24.1447 0.33 0.6
257 2 23.5347 2.87 2.74
364 2 23.8247 0.95 1.34
9409 1 24.2747 2.56 14.6247
9452 1 24.1447 0.33 13.0447
9473 2 23.5347 2.87 15.1847
9580 2 23.8247 0.95 13.7847
1345 1 24.2747 15.0047 2.18
1388 1 24.1447 12.7747 0.6
1409 2 23.5347 15.3147 2.74
1516 2 23.8247 13.3947 1.34
10561 1 24.2747 15.0047 14.6247
10604 1 24.1447 12.7747 13.0447
10625 2 23.5347 15.3147 15.1847
10732 2 23.8247 13.3947 13.7847
40 1 9.48 2.11 5.92
191 2 9.34 3.01 4.17
9256 1 9.48 2.11 18.3647
9407 2 9.34 3.01 16.6147
1192 1 9.48 14.5547 5.92
1343 2 9.34 15.4547 4.17
10408 1 9.48 14.5547 18.3647
10559 2 9.34 15.4547 16.6147
232 1 21.9247 2.11 5.92
383 2 21.7847 3.01 4.17
9448 1 21.9247 2.11 18.3647
9599 2 21.7847 3.01 16.6147
1384 1 21.9247 14.5547 5.92
1535 2 21.7847 15.4547 4.17
10600 1 21.9247 14.5547 18.3647
10751 2 21.7847 15.4547 16.6147
10 1 12.06 0.64 8.92
104 2 10.1 2.53 6.55
168 2 9.31 1.19 6.35
1162 1 12.06 13.0847 8.92
1256 2 10.1 14.9747 6.55
1320 2 9.31 13.6347 6.35
202 1 24.5047 0.64 8.92
296 2 22.5447 2.53 6.55
360 2 21.7547 1.19 6.35
1354 1 24.5047 13.0847 8.92
1448 2 22.5447 14.9747 6.55
1512 2 21.7547 13.6347 6.35
26 1 12.18 2.35 11.11
90 2 11.88 1.61 11.75
102 2 8.81 2.01 9.89
138 2 12.07 1.36 9.54
154 2 11.4 2.92 10.99
169 2 8.84 2.9 11.69
1178 1 12.18 14.7947 11.11
1242 2 11.88 14.0547 11.75
1254 2 8.81 14.4547 9.89
1290 2 12.07 13.8047 9.54
1306 2 11.4 15.3647 10.99
1321 2 8.84 15.3447 11.69
218 1 24.6247 2.35 11.11
282 2 24.3247 1.61 11.75
294 2 21.2547 2.01 9.89
330 2 24.5147 1.36 9.54
346 2 23.8447 2.92 10.99
361 2 21.2847 2.9 11.69
1370 1 24.6247 14.7947 11.11
1434 2 24.3247 14.0547 11.75
1446 2 21.2547 14.4547 9.89
1482 2 24.5147 13.8047 9.54
1498 2 23.8447 15.3647 10.99
1513 2 21.2847 15.3447 11.69
129 2 12.25 3.32 1.68
149 2 8.58 4.29 2.01
182 2 9.73 5.52 1.11
9345 2 12.25 3.32 14.1247
9365 2 8.58 4.29 14.4547
9398 2 9.73 5.52 13.5547
1281 2 12.25 15.7647 1.68
1301 2 8.58 16.7347 2.01
1334 2 9.73 17.9647 1.11
10497 2 12.25 15.7647 14.1247
10517 2 8.58 16.7347 14.4547
10550 2 9.73 17.9647 13.5547
321 2 24.6947 3.32 1.68
341 2 21.0247 4.29 2.01
374 2 22.1747 5.52 1.11
9537 2 24.6947 3.32 14.1247
9557 2 21.0247 4.29 14.4547
9590 2 22.1747 5.52 13.5547
1473 2 24.6947 15.7647 1.68
1493 2 21.0247 16.7347 2.01
1526 2 22.1747 17.9647 1.11
10689 2 24.6947 15.7647 14.1247
10709 2 21.0247 16.7347 14.4547
10742 2 22.1747 17.9647 13.5547
16 1 11 5.31 5.17
63 1 9.69 3.69 3.56
80 2 11.18 4.84 6.05
95 2 8.4 3.45 6.18
127 2 10.05 4.44 4.1
144 2 10.68 6.2 5.44
9232 1 11 5.31 17.6147
9279 1 9.69 3.69 16.0047
9296 2 11.18 4.84 18.4947
9311 2 8.4 3.45 18.6247
9343 2 10.05 4.44 16.5447
9360 2 10.68 6.2 17.8847
1168 1 11 17.7547 5.17
1215 1 9.69 16.1347 3.56
1232 2 11.18 17.2847 6.05
1247 2 8.4 15.8947 6.18
1279 2 10.05 16.8847 4.1
1296 2 10.68 18.6447 5.44
10384 1 11 17.7547 17.6147
10431 1 9.69 16.1347 16.0047
10448 2 11.18 17.2847 18.4947
10463 2 8.4 15.8947 18.6247
10495 2 10.05 16.8847 16.5447
10512 2 10.68 18.6447 17.8847
208 1 23.4447 5.31 5.17
255 1 22.1347 3.69 3.56
272 2 23.6247 4.84 6.05
287 2 20.8447 3.45 6.18
319 2 22.4947 4.44 4.1
336 2 23.1247 6.2 5.44
9424 1 23.4447 5.31 17.6147
9471 1 22.1347 3.69 16.0047
9488 2 23.6247 4.84 18.4947
9503 2 20.8447 3.45 18.6247
9535 2 22.4947 4.44 16.5447
9552 2 23.1247 6.2 17.8847
1360 1 23.4447 17.7547 5.17
1407 1 22.1347 16.1347 3.56
1424 2 23.6247 17.2847 6.05
1439 2 20.8447 15.8947 6.18
1471 2 22.4947 16.8847 4.1
1488 2 23.1247 18.6447 5.44
10576 1 23.4447 17.7547 17.6147
10623 1 22.1347 16.1347 16.0047
10640 2 23.6247 17.2847 18.4947
10655 2 20.8447 15.8947 18.6247
10687 2 22.4947 16.8847 16.5447
10704 2 23.1247 18.6447 17.8847
43 1 11.25 3.48 7.51
58 1 10.51 5.81 8.66
107 2 11.12 4.2 8.14
159 2 8.74 4.67 7.12
171 2 12.13 3.22 7.5
1195 1 11.25 15.9247 7.51
1210 1 10.51 18.2547 8.66
1259 2 11.12 16.6447 8.14
1311 2 8.74 17.1147 7.12
1323 2 12.13 15.6647 7.5
235 1 23.6947 3.48 7.51
250 1 22.9547 5.81 8.66
299 2 23.5647 4.2 8.14
351 2 21.1847 4.67 7.12
363 2 24.5747 3.22 7.5
1387 1 23.6947 15.9247 7.51
1402 1 22.9547 18.2547 8.66
1451 2 23.5647 16.6447 8.14
1503 2 21.1847 17.1147 7.12
1515 2 24.5747 15.6647 7.5
20 1 8.39 5.72 10.39
36 1 11.75 6.18 11.01
41 1 9.33 3.34 10.97
84 2 9.08 5.89 9.68
100 2 11.36 6.2 11.9
105 2 9.07 4.29 10.91
122 2 10.89 6.06 9.58
1172 1 8.39 18.1647 10.39
1188 1 11.75 18.6247 11.01
1193 1 9.33 15.7847 10.97
1236 2 9.08 18.3347 9.68
1252 2 11.36 18.6447 11.9
1257 2 9.07 16.7347 10.91
1274 2 10.89 18.5047 9.58
212 1 20.8347 5.72 10.39
228 1 24.1947 6.18 11.01
233 1 21.7747 3.34 10.97
276 2 21.5247 5.89 9.68
292 2 23.8047 6.2 11.9
297 2 21.5147 4.29 10.91
314 2 23.3347 6.06 9.58
1364 1 20.8347 18.1647 10.39
1380 1 24.1947 18.6247 11.01
1385 1 21.7747 15.7847 10.97
1428 2 21.5247 18.3347 9.68
1444 2 23.8047 18.6447 11.9
1449 2 21.5147 16.7347 10.91
1466 2 23.3347 18.5047 9.58
3 1 12.17 7.34 2.71
54 1 10.32 6.26 0.89
118 2 10.94 6.29 1.65
185 2 9.34 7.2 0.21
9219 1 12.17 7.34 15.1547
9270 1 10.32 6.26 13.3347
9334 2 10.94 6.29 14.0947
9401 2 9.34 7.2 12.6547
1155 1 12.17 19.7847 2.71
1206 1 10.32 18.7047 0.89
1270 2 10.94 18.7347 1.65
1337 2 9.34 19.6447 0.21
10371 1 12.17 19.7847 15.1547
10422 1 10.32 18.7047 13.3347
10486 2 10.94 18.7347 14.0947
10553 2 9.34 19.6447 12.6547
195 1 24.6147 7.34 2.71
246 1 22.7647 6.26 0.89
310 2 23.3847 6.29 1.65
377 2 21.7847 7.2 0.21
9411 1 24.6147 7.34 15.1547
9462 1 22.7647 6.26 13.3347
9526 2 23.3847 6.29 14.0947
9593 2 21.7847 7.2 12.6547
1347 1 24.6147 19.7847 2.71
1398 1 22.7647 18.7047 0.89
1462 2 23.3847 18.7347 1.65
1529 2 21.7847 19.6447 0.21
10563 1 24.6147 19.7847 15.1547
10614 1 22.7647 18.7047 13.3347
10678 2 23.3847 18.7347 14.0947
10745 2 21.7847 19.6447 12.6547
19 1 10.1 9.09 3.32
131 2 11.5 7.85 3.14
9235 1 10.1 9.09 15.7647
9347 2 11.5 7.85 15.5847
1171 1 10.1 21.5347 3.32
1283 2 11.5 20.2947 3.14
10387 1 10.1 21.5347 15.7647
10499 2 11.5 20.2947 15.5847
211 1 22.5447 9.09 3.32
323 2 23.9447 7.85 3.14
9427 1 22.5447 9.09 15.7647
9539 2 23.9447 7.85 15.5847
1363 1 22.5447 21.5347 3.32
1475 2 23.9447 20.2947 3.14
10579 1 22.5447 21.5347 15.7647
10691 2 23.9447 20.2947 15.5847
30 1 10.89 7.69 6.78
94 2 11.73 8.22 6.86
158 2 10.19 8.36 6.88
186 2 10.71 6.56 7.97
1182 1 10.89 20.1347 6.78
1246 2 11.73 20.6647 6.86
1310 2 10.19 20.8047 6.88
1338 2 10.71 19.0047 7.97
222 1 23.3347 7.69 6.78
286 2 24.1747 8.22 6.86
350 2 22.6347 8.36 6.88
378 2 23.1547 6.56 7.97
1374 1 23.3347 20.1347 6.78
1438 2 24.1747 20.6647 6.86
1502 2 22.6347 20.8047 6.88
1530 2 23.1547 19.0047 7.97
15 1 9.82 9.16 10.18
57 1 8.56 7.59 12.17
121 2 8.84 8.27 11.56
143 2 10.8 9.22 10.18
148 2 8.41 6.43 11.04
164 2 12.12 7.05 10.81
1167 1 9.82 21.6047 10.18
1209 1 8.56 20.0347 12.17
1273 2 8.84 20.7147 11.56
1295 2 10.8 21.6647 10.18
1300 2 8.41 18.8747 11.04
1316 2 12.12 19.4947 10.81
207 1 22.2647 9.16 10.18
249 1 21.0047 7.59 12.17
313 2 21.2847 8.27 11.56
335 2 23.2447 9.22 10.18
340 2 20.8547 6.43 11.04
356 2 24.5647 7.05 10.81
1359 1 22.2647 21.6047 10.18
1401 1 21.0047 20.0347 12.17
1465 2 21.2847 20.7147 11.56
1487 2 23.2447 21.6647 10.18
1492 2 20.8547 18.8747 11.04
1508 2 24.5647 19.4947 10.81
9 1 9.39 11.14 1.1
73 2 8.71 11.07 0.41
108 2 11.03 12.03 0.58
137 2 8.92 11.68 1.69
147 2 10.02 9.64 2.47
9225 1 9.39 11.14 13.5447
9289 2 8.71 11.07 12.8547
9324 2 11.03 12.03 13.0247
9353 2 8.92 11.68 14.1347
9363 2 10.02 9.64 14.9147
1161 1 9.39 23.5847 1.1
1225 2 8.71 23.5147 0.41
1260 2 11.03 24.4747 0.58
1289 2 8.92 24.1247 1.69
1299 2 10.02 22.0847 2.47
10377 1 9.39 23.5847 13.5447
10441 2 8.71 23.5147 12.8547
10476 2 11.03 24.4747 13.0247
10505 2 8.92 24.1247 14.1347
10515 2 10.02 22.0847 14.9147
201 1 21.8347 11.14 1.1
265 2 21.1547 11.07 0.41
300 2 23.4747 12.03 0.58
329 2 21.3647 11.68 1.69
339 2 22.4647 9.64 2.47
9417 1 21.8347 11.14 13.5447
9481 2 21.1547 11.07 12.8547
9516 2 23.4747 12.03 13.0247
9545 2 21.3647 11.68 14.1347
9555 2 22.4647 9.64 14.9147
1353 1 21.8347 23.5847 1.1
1417 2 21.1547 23.5147 0.41
1452 2 23.4747 24.4747 0.58
1481 2 21.3647 24.1247 1.69
1491 2 22.4647 22.0847 2.47
10569 1 21.8347 23.5847 13.5447
10633 2 21.1547 23.5147 12.8547
10668 2 23.4747 24.4747 13.0247
10697 2 21.3647 24.1247 14.1347
10707 2 22.4647 22.0847 14.9147
13 1 11.88 10.9 4.7
77 2 11.55 10.19 4.15
83 2 9.51 9.48 3.94
141 2 11.89 10.59 5.56
9229 1 11.88 10.9 17.1447
9293 2 11.55 10.19 16.5947
9299 2 9.51 9.48 16.3847
9357 2 11.89 10.59 18.0047
1165 1 11.88 23.3447 4.7
1229 2 11.55 22.6347 4.15
1235 2 9.51 21.9247 3.94
1293 2 11.89 23.0347 5.56
10381 1 11.88 23.3447 17.1447
10445 2 11.55 22.6347 16.5947
10451 2 9.51 21.9247 16.3847
10509 2 11.89 23.0347 18.0047
205 1 24.3247 10.9 4.7
269 2 23.9947 10.19 4.15
275 2 21.9547 9.48 3.94
333 2 24.3347 10.59 5.56
9421 1 24.3247 10.9 17.1447
9485 2 23.9947 10.19 16.5947
9491 2 21.9547 9.48 16.3847
9549 2 24.3347 10.59 18.0047
1357 1 24.3247 23.3447 4.7
1421 2 23.9947 22.6347 4.15
1427 2 21.9547 21.9247 3.94
1485 2 24.3347 23.0347 5.56
10573 1 24.3247 23.3447 17.1447
10637 2 23.9947 22.6347 16.5947
10643 2 21.9547 21.9247 16.3847
10701 2 24.3347 23.0347 18.0047
46 1 8.86 9.52 7.4
61 1 9.47 12.13 7.57
110 2 9.13 10.45 7.25
125 2 8.69 12.34 8.15
174 2 9.15 9.43 8.28
189 2 10.19 12.39 8.15
1198 1 8.86 21.9647 7.4
1213 1 9.47 24.5747 7.57
1262 2 9.13 22.8947 7.25
1277 2 8.69 24.7847 8.15
1326 2 9.15 21.8747 8.28
1341 2 10.19 24.8347 8.15
238 1 21.3047 9.52 7.4
253 1 21.9147 12.13 7.57
302 2 21.5747 10.45 7.25
317 2 21.1347 12.34 8.15
366 2 21.5947 9.43 8.28
381 2 22.6347 12.39 8.15
1390 1 21.3047 21.9647 7.4
1405 1 21.9147 24.5747 7.57
1454 2 21.5747 22.8947 7.25
1469 2 21.1347 24.7847 8.15
1518 2 21.5947 21.8747 8.28
1533 2 22.6347 24.8347 8.15
79 2 9.53 10.04 10.56
1231 2 9.53 22.4847 10.56
271 2 21.9747 10.04 10.56
1423 2 21.9747 22.4847 10.56
18572 2 2.67 3.09 25.9394
19724 2 2.67 15.5347 25.9394
18764 2 15.1147 3.09 25.9394
19916 2 15.1147 15.5347 25.9394
18494 1 1.41 2.32 29.0594