ITEM: TIMESTEP
0
ITEM: NUMBER OF ATOMS
1152
ITEM: BOX BOUNDS xy xz yz pp pp pp
0.0000000000000000e+00 1.2444699999999999e+01 0.0000000000000000e+00
0.0000000000000000e+00 2.4889399999999998e+01 0.0000000000000000e+00
0.0000000000000000e+00 3.7334099999999999e+01 0.0000000000000000e+00
ITEM: ATOMS id type x y z
1 1 11.83 2.56 2.18
2 1 5.36 6 1.81
3 1 12.17 7.34 2.71
4 1 3.38 4.28 4.84
5 1 4.54 11.73 11.9
6 1 7.34 0.18 2.18
7 1 5.73 9.9 10.31
8 1 5.32 11.19 1.83
9 1 9.39 11.14 1.1
10 1 12.06 0.64 8.92
11 1 5.01 7.72 11.74
12 1 3.64 3.19 1.08
13 1 11.88 10.9 4.7
14 1 3.88 8.05 2.51
15 1 9.82 9.16 10.18
16 1 11 5.31 5.17
17 1 0.97 4.12 0.84
18 1 1.24 5.99 4.76
19 1 10.1 9.09 3.32
20 1 8.39 5.72 10.39
21 1 8.06 4.72 1.3
22 1 3.23 3.34 8.26
23 1 5.02 6.21 7.29
24 1 3.94 10.55 3.95
25 1 6.25 4.56 4.21
26 1 12.18 2.35 11.11
27 1 6.76 8.57 4.07
28 1 5.87 5.84 9.79
29 1 2.18 6.91 6.99
30 1 10.89 7.69 6.78
31 1 8.03 4.28 6.57
32 1 5.29 1.92 11.56
33 1 1.53 12.16 3.45
34 1 2.04 5.49 9.71
35 1 6.66 9.05 1.21
36 1 11.75 6.18 11.01
37 1 6.11 3.07 7.96
38 1 8.22 1.38 9.43
39 1 1.31 2.02 7.09
40 1 9.48 2.11 5.92
41 1 9.33 3.34 10.97
42 1 1.31 8.49 0.81
43 1 11.25 3.48 7.51
44 1 11.7 0.33 0.6
45 1 7.63 2.04 0.28
46 1 8.86 9.52 7.4
47 1 2.01 11.54 6.89
48 1 8.02 11.27 4.66
49 1 5.82 9.18 7.71
50 1 8.11 11.19 11.22
51 1 5.94 0.84 5.91
52 1 1.88 11.66 0.64
53 1 4.66 11.28 6.73
54 1 10.32 6.26 0.89
55 1 2.01 11.07 10.33
56 1 5.36 2.06 3.14
57 1 8.56 7.59 12.17
58 1 10.51 5.81 8.66
59 1 2.37 6.23 12.1
60 1 0.3 8.77 10.05
61 1 9.47 12.13 7.57
62 1 1.41 2.32 4.17
63 1 9.69 3.69 3.56
64 1 0.75 9.22 7.39
65 2 11.09 2.87 2.74
66 2 5.51 5.51 2.6
67 2 0.24 6.8 3.29
68 2 4.28 4.19 4.46
69 2 3.63 11.56 11.76
70 2 6.53 12.07 1.99
71 2 5.37 9.14 10.85
72 2 5.74 10.31 1.64
73 2 8.71 11.07 0.41
74 2 0.27 1.04 8.27
75 2 5.46 7.08 11.15
76 2 3.84 4.17 1.06
77 2 11.55 10.19 4.15
78 2 3 8.17 2.14
79 2 9.53 10.04 10.56
80 2 11.18 4.84 6.05
81 2 0.68 3.76 12.44
82 2 0.43 5.51 4.88
83 2 9.51 9.48 3.94
84 2 9.08 5.89 9.68
85 2 7.92 3.83 0.8
86 2 4.23 3.22 8.21
87 2 5.27 5.9 8.19
88 2 4.44 10.9 3.14
89 2 6.93 4.56 4.89
90 2 11.88 1.61 11.75
91 2 6.79 8.54 3.09
92 2 5.62 4.99 10.13
93 2 3.09 6.66 6.98
94 2 11.73 8.22 6.86
95 2 8.4 3.45 6.18
96 2 4.64 2.37 12.16
97 2 0.74 11.69 3.86
98 2 1.1 5.3 9.72
99 2 7.54 9.11 0.83
100 2 11.36 6.2 11.9
101 2 5.85 2.21 7.53
102 2 8.81 2.01 9.89
103 2 2.17 2.43 7.46
104 2 10.1 2.53 6.55
105 2 9.07 4.29 10.91
106 2 0.64 8.13 1.45
107 2 11.12 4.2 8.14
108 2 11.03 12.03 0.58
109 2 6.83 1.84 12.19
110 2 9.13 10.45 7.25
111 2 1.76 12.44 6.8
112 2 7.37 11.88 5.08
113 2 5.59 8.29 7.44
114 2 8.14 12.12 10.86
115 2 5.48 0.06 6.32
116 2 0.99 11.99 0.41
117 2 4.54 10.95 5.79
118 2 10.94 6.29 1.65
119 2 2.52 10.55 9.76
120 2 4.74 2.41 2.42
121 2 8.84 8.27 11.56
122 2 10.89 6.06 9.58
123 2 2.15 5.99 11.18
124 2 0.49 9.06 9.13
125 2 8.69 12.34 8.15
126 2 1.76 1.44 4.07
127 2 10.05 4.44 4.1
128 2 1.44 8.49 7.32
129 2 12.25 3.32 1.68
130 2 6.27 6.22 1.56
131 2 11.5 7.85 3.14
132 2 2.96 3.44 4.61
133 2 5.04 11.17 11.3
134 2 7.6 12.39 3.03
135 2 5.94 9.68 9.37
136 2 4.93 11.46 0.96
137 2 8.92 11.68 1.69
138 2 12.07 1.36 9.54
139 2 4.17 7.28 11.8
140 2 2.67 3.09 1.05
141 2 11.89 10.59 5.56
142 2 4.27 7.23 2.16
143 2 10.8 9.22 10.18
144 2 10.68 6.2 5.44
145 2 1.51 4.9 0.53
146 2 1.94 5.36 4.61
147 2 10.02 9.64 2.47
148 2 8.41 6.43 11.04
149 2 8.58 4.29 2.01
150 2 3.12 4.28 8.41
151 2 5.12 5.54 6.6
152 2 3.97 9.58 3.89
153 2 6.17 3.63 3.9
154 2 11.4 2.92 10.99
155 2 5.96 8.02 4.26
156 2 6.81 5.9 9.83
157 2 1.83 6.59 6.16
158 2 10.19 8.36 6.88
159 2 8.74 4.67 7.12
160 2 4.84 1.08 11.38
161 2 2.38 11.71 3.7
162 2 2.02 6.1 8.92
163 2 6.05 8.48 0.61
164 2 12.12 7.05 10.81
165 2 6.81 3.46 7.31
166 2 7.52 1.99 9.1
167 2 1.25 2.26 6.18
168 2 9.31 1.19 6.35
169 2 8.84 2.9 11.69
170 2 1.39 9.44 0.85
171 2 12.13 3.22 7.5
172 2 11.38 0.95 1.34
173 2 7.43 1.82 1.24
174 2 9.15 9.43 8.28
175 2 2.97 11.66 6.88
176 2 7.5 10.43 4.47
177 2 6.69 9.4 7.47
178 2 7.29 10.77 10.93
179 2 5.45 1.07 5.12
180 2 1.92 11.57 1.62
181 2 5.05 10.55 7.26
182 2 9.73 5.52 1.11
183 2 1.73 11.85 9.82
184 2 6.02 1.57 2.67
185 2 9.34 7.2 0.21
186 2 10.71 6.56 7.97
187 2 1.86 7.03 12.37
188 2 1.08 9.16 10.59
189 2 10.19 12.39 8.15
190 2 0.92 2.56 3.28
191 2 9.34 3.01 4.17
192 2 1.11 10.09 7.21
385 1 11.83 2.56 14.6247
386 1 5.36 6 14.2547
387 1 12.17 7.34 15.1547
388 1 3.38 4.28 17.2847
389 1 4.54 11.73 24.3447
390 1 7.34 0.18 14.6247
391 1 5.73 9.9 22.7547
392 1 5.32 11.19 14.2747
393 1 9.39 11.14 13.5447
394 1 12.06 0.64 21.3647
395 1 5.01 7.72 24.1847
396 1 3.64 3.19 13.5247
397 1 11.88 10.9 17.1447
398 1 3.88 8.05 14.9547
399 1 9.82 9.16 22.6247
400 1 11 5.31 17.6147
401 1 0.97 4.12 13.2847
402 1 1.24 5.99 17.2047
403 1 10.1 9.09 15.7647
404 1 8.39 5.72 22.8347
405 1 8.06 4.72 13.7447
406 1 3.23 3.34 20.7047
407 1 5.02 6.21 19.7347
408 1 3.94 10.55 16.3947
409 1 6.25 4.56 16.6547
410 1 12.18 2.35 23.5547
411 1 6.76 8.57 16.5147
412 1 5.87 5.84 22.2347
413 1 2.18 6.91 19.4347
414 1 10.89 7.69 19.2247
415 1 8.03 4.28 19.0147
416 1 5.29 1.92 24.0047
417 1 1.53 12.16 15.8947
418 1 2.04 5.49 22.1547
419 1 6.66 9.05 13.6547
420 1 11.75 6.18 23.4547
421 1 6.11 3.07 20.4047
422 1 8.22 1.38 21.8747
423 1 1.31 2.02 19.5347
424 1 9.48 2.11 18.3647
425 1 9.33 3.34 23.4147
426 1 1.31 8.49 13.2547
427 1 11.25 3.48 19.9547
428 1 11.7 0.33 13.0447
429 1 7.63 2.04 12.7247
430 1 8.86 9.52 19.8447
431 1 2.01 11.54 19.3347
432 1 8.02 11.27 17.1047
433 1 5.82 9.18 20.1547
434 1 8.11 11.19 23.6647
435 1 5.94 0.84 18.3547
436 1 1.88 11.66 13.0847
437 1 4.66 11.28 19.1747
438 1 10.32 6.26 13.3347
439 1 2.01 11.07 22.7747
440 1 5.36 2.06 15.5847
441 1 8.56 7.59 24.6147
442 1 10.51 5.81 21.1047
443 1 2.37 6.23 24.5447
444 1 0.3 8.77 22.4947
445 1 9.47 12.13 20.0147
446 1 1.41 2.32 16.6147
447 1 9.69 3.69 16.0047
448 1 0.75 9.22 19.8347
449 2 11.09 2.87 15.1847
450 2 5.51 5.51 15.0447
451 2 0.24 6.8 15.7347
452 2 4.28 4.19 16.9047
453 2 3.63 11.56 24.2047
454 2 6.53 12.07 14.4347
455 2 5.37 9.14 23.2947
456 2 5.74 10.31 14.0847
457 2 8.71 11.07 12.8547
458 2 0.27 1.04 20.7147
459 2 5.46 7.08 23.5947
460 2 3.84 4.17 13.5047
461 2 11.55 10.19 16.5947
462 2 3 8.17 14.5847
463 2 9.53 10.04 23.0047
464 2 11.18 4.84 18.4947
465 2 0.68 3.76 24.8847
466 2 0.43 5.51 17.3247
467 2 9.51 9.48 16.3847
468 2 9.08 5.89 22.1247
469 2 7.92 3.83 13.2447
470 2 4.23 3.22 20.6547
471 2 5.27 5.9 20.6347
472 2 4.44 10.9 15.5847
473 2 6.93 4.56 17.3347
474 2 11.88 1.61 24.1947
475 2 6.79 8.54 15.5347
476 2 5.62 4.99 22.5747
477 2 3.09 6.66 19.4247
478 2 11.73 8.22 19.3047
479 2 8.4 3.45 18.6247
480 2 4.64 2.37 24.6047
481 2 0.74 11.69 16.3047
482 2 1.1 5.3 22.1647
483 2 7.54 9.11 13.2747
484 2 11.36 6.2 24.3447
485 2 5.85 2.21 19.9747
486 2 8.81 2.01 22.3347
487 2 2.17 2.43 19.9047
488 2 10.1 2.53 18.9947
489 2 9.07 4.29 23.3547
490 2 0.64 8.13 13.8947
491 2 11.12 4.2 20.5847
492 2 11.03 12.03 13.0247
493 2 6.83 1.84 24.6347
494 2 9.13 10.45 19.6947
495 2 1.76 12.44 19.2447
496 2 7.37 11.88 17.5247
497 2 5.59 8.29 19.8847
498 2 8.14 12.12 23.3047
499 2 5.48 0.06 18.7647
500 2 0.99 11.99 12.8547
501 2 4.54 10.95 18.2347
502 2 10.94 6.29 14.0947
503 2 2.52 10.55 22.2047
504 2 4.74 2.41 14.8647
505 2 8.84 8.27 24.0047
506 2 10.89 6.06 22.0247
507 2 2.15 5.99 23.6247
508 2 0.49 9.06 21.5747
509 2 8.69 12.34 20.5947
510 2 1.76 1.44 16.5147
511 2 10.05 4.44 16.5447
512 2 1.44 8.49 19.7647
513 2 12.25 3.32 14.1247
514 2 6.27 6.22 14.0047
515 2 11.5 7.85 15.5847
516 2 2.96 3.44 17.0547
517 2 5.04 11.17 23.7447
518 2 7.6 12.39 15.4747
519 2 5.94 9.68 21.8147
520 2 4.93 11.46 13.4047
521 2 8.92 11.68 14.1347
522 2 12.07 1.36 21.9847
523 2 4.17 7.28 24.2447
524 2 2.67 3.09 13.4947
525 2 11.89 10.59 18.0047
526 2 4.27 7.23 14.6047
527 2 10.8 9.22 22.6247
528 2 10.68 6.2 17.8847
529 2 1.51 4.9 12.9747
530 2 1.94 5.36 17.0547
531 2 10.02 9.64 14.9147
532 2 8.41 6.43 23.4847
533 2 8.58 4.29 14.4547
534 2 3.12 4.28 20.8547
535 2 5.12 5.54 19.0447
536 2 3.97 9.58 16.3347
537 2 6.17 3.63 16.3447
538 2 11.4 2.92 23.4347
539 2 5.96 8.02 16.7047
540 2 6.81 5.9 22.2747
541 2 1.83 6.59 18.6047
542 2 10.19 8.36 19.3247
543 2 8.74 4.67 19.5647
544 2 4.84 1.08 23.8247
545 2 2.38 11.71 16.1447
546 2 2.02 6.1 21.3647
547 2 6.05 8.48 13.0547
548 2 12.12 7.05 23.2547
549 2 6.81 3.46 19.7547
550 2 7.52 1.99 21.5447
551 2 1.25 2.26 18.6247
552 2 9.31 1.19 18.7947
553 2 8.84 2.9 24.1347
554 2 1.39 9.44 13.2947
555 2 12.13 3.22 19.9447
556 2 11.38 0.95 13.7847
557 2 7.43 1.82 13.6847
558 2 9.15 9.43 20.7247
559 2 2.97 11.66 19.3247
560 2 7.5 10.43 16.9147
561 2 6.69 9.4 19.9147
562 2 7.29 10.77 23.3747
563 2 5.45 1.07 17.5647
564 2 1.92 11.57 14.0647
565 2 5.05 10.55 19.7047
566 2 9.73 5.52 13.5547
567 2 1.73 11.85 22.2647
568 2 6.02 1.57 15.1147
569 2 9.34 7.2 12.6547
570 2 10.71 6.56 20.4147
571 2 1.86 7.03 24.8147
572 2 1.08 9.16 23.0347
573 2 10.19 12.39 20.5947
574 2 0.92 2.56 15.7247
575 2 9.34 3.01 16.6147
576 2 1.11 10.09 19.6547
769 1 11.83 2.56 27.0694
770 1 5.36 6 26.6994
771 1 12.17 7.34 27.5994
772 1 3.38 4.28 29.7294
773 1 4.54 11.73 36.7894
774 1 7.34 0.18 27.0694
775 1 5.73 9.9 35.1994
776 1 5.32 11.19 26.7194
777 1 9.39 11.14 25.9894
778 1 12.06 0.64 33.8094
779 1 5.01 7.72 36.6294
780 1 3.64 3.19 25.9694
781 1 11.88 10.9 29.5894
782 1 3.88 8.05 27.3994
783 1 9.82 9.16 35.0694
784 1 11 5.31 30.0594
785 1 0.97 4.12 25.7294
786 1 1.24 5.99 29.6494
787 1 10.1 9.09 28.2094
788 1 8.39 5.72 35.2794
789 1 8.06 4.72 26.1894
790 1 3.23 3.34 33.1494
791 1 5.02 6.21 32.1794
792 1 3.94 10.55 28.8394
793 1 6.25 4.56 29.0994
794 1 12.18 2.35 35.9994
795 1 6.76 8.57 28.9594
796 1 5.87 5.84 34.6794
797 1 2.18 6.91 31.8794
798 1 10.89 7.69 31.6694
799 1 8.03 4.28 31.4594
800 1 5.29 1.92 36.4494
801 1 1.53 12.16 28.3394
802 1 2.04 5.49 34.5994
803 1 6.66 9.05 26.0994
804 1 11.75 6.18 35.8994
805 1 6.11 3.07 32.8494
806 1 8.22 1.38 34.3194
807 1 1.31 2.02 31.9794
808 1 9.48 2.11 30.8094
809 1 9.33 3.34 35.8594
810 1 1.31 8.49 25.6994
811 1 11.25 3.48 32.3994
812 1 11.7 0.33 25.4894
813 1 7.63 2.04 25.1694
814 1 8.86 9.52 32.2894
815 1 2.01 11.54 31.7794
816 1 8.02 11.27 29.5494
817 1 5.82 9.18 32.5994
818 1 8.11 11.19 36.1094
819 1 5.94 0.84 30.7994
820 1 1.88 11.66 25.5294
821 1 4.66 11.28 31.6194
822 1 10.32 6.26 25.7794
823 1 2.01 11.07 35.2194
824 1 5.36 2.06 28.0294
825 1 8.56 7.59 37.0594
826 1 10.51 5.81 33.5494
827 1 2.37 6.23 36.9894
828 1 0.3 8.77 34.9394
829 1 9.47 12.13 32.4594
830 1 1.41 2.32 29.0594
831 1 9.69 3.69 28.4494
832 1 0.75 9.22 32.2794
833 2 11.09 2.87 27.6294
834 2 5.51 5.51 27.4894
835 2 0.24 6.8 28.1794
836 2 4.28 4.19 29.3494
837 2 3.63 11.56 36.6494
838 2 6.53 12.07 26.8794
839 2 5.37 9.14 35.7394
840 2 5.74 10.31 26.5294
841 2 8.71 11.07 25.2994
842 2 0.27 1.04 33.1594
843 2 5.46 7.08 36.0394
844 2 3.84 4.17 25.9494
845 2 11.55 10.19 29.0394
846 2 3 8.17 27.0294
847 2 9.53 10.04 35.4494
848 2 11.18 4.84 30.9394
849 2 0.68 3.76 37.3294
850 2 0.43 5.51 29.7694
851 2 9.51 9.48 28.8294
852 2 9.08 5.89 34.5694
853 2 7.92 3.83 25.6894
854 2 4.23 3.22 33.0994
855 2 5.27 5.9 33.0794
856 2 4.44 10.9 28.0294
857 2 6.93 4.56 29.7794
858 2 11.88 1.61 36.6394
859 2 6.79 8.54 27.9794
860 2 5.62 4.99 35.0194
861 2 3.09 6.66 31.8694
862 2 11.73 8.22 31.7494
863 2 8.4 3.45 31.0694
864 2 4.64 2.37 37.0494
865 2 0.74 11.69 28.7494
866 2 1.1 5.3 34.6094
867 2 7.54 9.11 25.7194
868 2 11.36 6.2 36.7894
869 2 5.85 2.21 32.4194
870 2 8.81 2.01 34.7794
871 2 2.17 2.43 32.3494
872 2 10.1 2.53 31.4394
873 2 9.07 4.29 35.7994
874 2 0.64 8.13 26.3394
875 2 11.12 4.2 33.0294
876 2 11.03 12.03 25.4694
877 2 6.83 1.84 37.0794
878 2 9.13 10.45 32.1394
879 2 1.76 12.44 31.6894
880 2 7.37 11.88 29.9694
881 2 5.59 8.29 32.3294
882 2 8.14 12.12 35.7494
883 2 5.48 0.06 31.2094
884 2 0.99 11.99 25.2994
885 2 4.54 10.95 30.6794
886 2 10.94 6.29 26.5394
887 2 2.52 10.55 34.6494
888 2 4.74 2.41 27.3094
889 2 8.84 8.27 36.4494
890 2 10.89 6.06 34.4694
891 2 2.15 5.99 36.0694
892 2 0.49 9.06 34.0194
893 2 8.69 12.34 33.0394
894 2 1.76 1.44 28.9594
895 2 10.05 4.44 28.9894
896 2 1.44 8.49 32.2094
897 2 12.25 3.32 26.5694
898 2 6.27 6.22 26.4494
899 2 11.5 7.85 28.0294
900 2 2.96 3.44 29.4994
901 2 5.04 11.17 36.1894
902 2 7.6 12.39 27.9194
903 2 5.94 9.68 34.2594
904 2 4.93 11.46 25.8494
905 2 8.92 11.68 26.5794
906 2 12.07 1.36 34.4294
907 2 4.17 7.28 36.6894
908 2 2.67 3.09 25.9394
909 2 11.89 10.59 30.4494
910 2 4.27 7.23 27.0494
911 2 10.8 9.22 35.0694
912 2 10.68 6.2 30.3294
913 2 1.51 4.9 25.4194
914 2 1.94 5.36 29.4994
915 2 10.02 9.64 27.3594
916 2 8.41 6.43 35.9294
917 2 8.58 4.29 26.8994
918 2 3.12 4.28 33.2994
919 2 5.12 5.54 31.4894
920 2 3.97 9.58 28.7794
921 2 6.17 3.63 28.7894
922 2 11.4 2.92 35.8794
923 2 5.96 8.02 29.1494
924 2 6.81 5.9 34.7194
925 2 1.83 6.59 31.0494
926 2 10.19 8.36 31.7694
927 2 8.74 4.67 32.0094
928 2 4.84 1.08 36.2694
929 2 2.38 11.71 28.5894
930 2 2.02 6.1 33.8094
931 2 6.05 8.48 25.4994
932 2 12.12 7.05 35.6994
933 2 6.81 3.46 32.1994
934 2 7.52 1.99 33.9894
935 2 1.25 2.26 31.0694
936 2 9.31 1.19 31.2394
937 2 8.84 2.9 36.5794
938 2 1.39 9.44 25.7394
939 2 12.13 3.22 32.3894
940 2 11.38 0.95 26.2294
941 2 7.43 1.82 26.1294
942 2 9.15 9.43 33.1694
943 2 2.97 11.66 31.7694
944 2 7.5 10.43 29.3594
945 2 6.69 9.4 32.3594
946 2 7.29 10.77 35.8194
947 2 5.45 1.07 30.0094
948 2 1.92 11.57 26.5094
949 2 5.05 10.55 32.1494
950 2 9.73 5.52 25.9994
951 2 1.73 11.85 34.7094
952 2 6.02 1.57 27.5594
953 2 9.34 7.2 25.0994
954 2 10.71 6.56 32.8594
955 2 1.86 7.03 37.2594
956 2 1.08 9.16 35.4794
957 2 10.19 12.39 33.0394
958 2 0.92 2.56 28.1694
959 2 9.34 3.01 29.0594
960 2 1.11 10.09 32.0994
193 1 11.83 15.0047 2.18
194 1 5.36 18.4447 1.81
195 1 12.17 19.7847 2.71
196 1 3.38 16.7247 4.84
197 1 4.54 24.1747 11.9
198 1 7.34 12.6247 2.18
199 1 5.73 22.3447 10.31
200 1 5.32 23.6347 1.83
201 1 9.39 23.5847 1.1
202 1 12.06 13.0847 8.92
203 1 5.01 20.1647 11.74
204 1 3.64 15.6347 1.08
205 1 11.88 23.3447 4.7
206 1 3.88 20.4947 2.51
207 1 9.82 21.6047 10.18
208 1 11 17.7547 5.17
209 1 0.97 16.5647 0.84
210 1 1.24 18.4347 4.76
211 1 10.1 21.5347 3.32
212 1 8.39 18.1647 10.39
213 1 8.06 17.1647 1.3
214 1 3.23 15.7847 8.26
215 1 5.02 18.6547 7.29
216 1 3.94 22.9947 3.95
217 1 6.25 17.0047 4.21
218 1 12.18 14.7947 11.11
219 1 6.76 21.0147 4.07
220 1 5.87 18.2847 9.79
221 1 2.18 19.3547 6.99
222 1 10.89 20.1347 6.78
223 1 8.03 16.7247 6.57
224 1 5.29 14.3647 11.56
225 1 1.53 24.6047 3.45
226 1 2.04 17.9347 9.71
227 1 6.66 21.4947 1.21
228 1 11.75 18.6247 11.01
229 1 6.11 15.5147 7.96
230 1 8.22 13.8247 9.43
231 1 1.31 14.4647 7.09
232 1 9.48 14.5547 5.92
233 1 9.33 15.7847 10.97
234 1 1.31 20.9347 0.81
235 1 11.25 15.9247 7.51
236 1 11.7 12.7747 0.6
237 1 7.63 14.4847 0.28
238 1 8.86 21.9647 7.4
239 1 2.01 23.9847 6.89
240 1 8.02 23.7147 4.66
241 1 5.82 21.6247 7.71
242 1 8.11 23.6347 11.22
243 1 5.94 13.2847 5.91
244 1 1.88 24.1047 0.64
245 1 4.66 23.7247 6.73
246 1 10.32 18.7047 0.89
247 1 2.01 23.5147 10.33
248 1 5.36 14.5047 3.14
249 1 8.56 20.0347 12.17
250 1 10.51 18.2547 8.66
251 1 2.37 18.6747 12.1
252 1 0.3 21.2147 10.05
253 1 9.47 24.5747 7.57
254 1 1.41 14.7647 4.17
255 1 9.69 16.1347 3.56
256 1 0.75 21.6647 7.39
257 2 11.09 15.3147 2.74
258 2 5.51 17.9547 2.6
259 2 0.24 19.2447 3.29
260 2 4.28 16.6347 4.46
261 2 3.63 24.0047 11.76
262 2 6.53 24.5147 1.99
263 2 5.37 21.5847 10.85
264 2 5.74 22.7547 1.64
265 2 8.71 23.5147 0.41
266 2 0.27 13.4847 8.27
267 2 5.46 19.5247 11.15
268 2 3.84 16.6147 1.06
269 2 11.55 22.6347 4.15
270 2 3 20.6147 2.14
271 2 9.53 22.4847 10.56
272 2 11.18 17.2847 6.05
273 2 0.68 16.2047 12.44
274 2 0.43 17.9547 4.88
275 2 9.51 21.9247 3.94
276 2 9.08 18.3347 9.68
277 2 7.92 16.2747 0.8
278 2 4.23 15.6647 8.21
279 2 5.27 18.3447 8.19
280 2 4.44 23.3447 3.14
281 2 6.93 17.0047 4.89
282 2 11.88 14.0547 11.75
283 2 6.79 20.9847 3.09
284 2 5.62 17.4347 10.13
285 2 3.09 19.1047 6.98
286 2 11.73 20.6647 6.86
287 2 8.4 15.8947 6.18
288 2 4.64 14.8147 12.16
289 2 0.74 24.1347 3.86
290 2 1.1 17.7447 9.72
291 2 7.54 21.5547 0.83
292 2 11.36 18.6447 11.9
293 2 5.85 14.6547 7.53
294 2 8.81 14.4547 9.89
295 2 2.17 14.8747 7.46
296 2 10.1 14.9747 6.55
297 2 9.07 16.7347 10.91
298 2 0.64 20.5747 1.45
299 2 11.12 16.6447 8.14
300 2 11.03 24.4747 0.58
301 2 6.83 14.2847 12.19
302 2 9.13 22.8947 7.25
303 2 1.76 24.8847 6.8
304 2 7.37 24.3247 5.08
305 2 5.59 20.7347 7.44
306 2 8.14 24.5647 10.86
307 2 5.48 12.5047 6.32
308 2 0.99 24.4347 0.41
309 2 4.54 23.3947 5.79
310 2 10.94 18.7347 1.65
311 2 2.52 22.9947 9.76
312 2 4.74 14.8547 2.42
313 2 8.84 20.7147 11.56
314 2 10.89 18.5047 9.58
315 2 2.15 18.4347 11.18
316 2 0.49 21.5047 9.13
317 2 8.69 24.7847 8.15
318 2 1.76 13.8847 4.07
319 2 10.05 16.8847 4.1
320 2 1.44 20.9347 7.32
321 2 12.25 15.7647 1.68
322 2 6.27 18.6647 1.56
323 2 11.5 20.2947 3.14
324 2 2.96 15.8847 4.61
325 2 5.04 23.6147 11.3
326 2 7.6 24.8347 3.03
327 2 5.94 22.1247 9.37
328 2 4.93 23.9047 0.96
329 2 8.92 24.1247 1.69
330 2 12.07 13.8047 9.54
331 2 4.17 19.7247 11.8
332 2 2.67 15.5347 1.05
333 2 11.89 23.0347 5.56
334 2 4.27 19.6747 2.16
335 2 10.8 21.6647 10.18
336 2 10.68 18.6447 5.44
337 2 1.51 17.3447 0.53
338 2 1.94 17.8047 4.61
339 2 10.02 22.0847 2.47
340 2 8.41 18.8747 11.04
341 2 8.58 16.7347 2.01
342 2 3.12 16.7247 8.41
343 2 5.12 17.9847 6.6
344 2 3.97 22.0247 3.89
345 2 6.17 16.0747 3.9
346 2 11.4 15.3647 10.99
347 2 5.96 20.4647 4.26
348 2 6.81 18.3447 9.83
349 2 1.83 19.0347 6.16
350 2 10.19 20.8047 6.88
351 2 8.74 17.1147 7.12
352 2 4.84 13.5247 11.38
353 2 2.38 24.1547 3.7
354 2 2.02 18.5447 8.92
355 2 6.05 20.9247 0.61
356 2 12.12 19.4947 10.81
357 2 6.81 15.9047 7.31
358 2 7.52 14.4347 9.1
359 2 1.25 14.7047 6.18
360 2 9.31 13.6347 6.35
361 2 8.84 15.3447 11.69
362 2 1.39 21.8847 0.85
363 2 12.13 15.6647 7.5
364 2 11.38 13.3947 1.34
365 2 7.43 14.2647 1.24
366 2 9.15 21.8747 8.28
367 2 2.97 24.1047 6.88
368 2 7.5 22.8747 4.47
369 2 6.69 21.8447 7.47
370 2 7.29 23.2147 10.93
371 2 5.45 13.5147 5.12
372 2 1.92 24.0147 1.62
373 2 5.05 22.9947 7.26
374 2 9.73 17.9647 1.11
375 2 1.73 24.2947 9.82
376 2 6.02 14.0147 2.67
377 2 9.34 19.6447 0.21
378 2 10.71 19.0047 7.97
379 2 1.86 19.4747 12.37
380 2 1.08 21.6047 10.59
381 2 10.19 24.8347 8.15
382 2 0.92 15.0047 3.28
383 2 9.34 15.4547 4.17
384 2 1.11 22.5347 7.21
577 1 11.83 15.0047 14.6247
578 1 5.36 18.4447 14.2547
579 1 12.17 19.7847 15.1547
580 1 3.38 16.7247 17.2847
581 1 4.54 24.1747 24.3447
582 1 7.34 12.6247 14.6247
583 1 5.73 22.3447 22.7547
584 1 5.32 23.6347 14.2747
585 1 9.39 23.5847 13.5447
586 1 12.06 13.0847 21.3647
587 1 5.01 20.1647 24.1847
588 1 3.64 15.6347 13.5247
589 1 11.88 23.3447 17.1447
590 1 3.88 20.4947 14.9547
591 1 9.82 21.6047 22.6247
592 1 11 17.7547 17.6147
593 1 0.97 16.5647 13.2847
594 1 1.24 18.4347 17.2047
595 1 10.1 21.5347 15.7647
596 1 8.39 18.1647 22.8347
597 1 8.06 17.1647 13.7447
598 1 3.23 15.7847 20.7047
599 1 5.02 18.6547 19.7347
600 1 3.94 22.9947 16.3947
601 1 6.25 17.0047 16.6547
602 1 12.18 14.7947 23.5547
603 1 6.76 21.0147 16.5147
604 1 5.87 18.2847 22.2347
605 1 2.18 19.3547 19.4347
606 1 10.89 20.1347 19.2247
607 1 8.03 16.7247 19.0147
608 1 5.29 14.3647 24.0047
609 1 1.53 24.6047 15.8947
610 1 2.04 17.9347 22.1547
611 1 6.66 21.4947 13.6547
612 1 11.75 18.6247 23.4547
613 1 6.11 15.5147 20.4047
614 1 8.22 13.8247 21.8747
615 1 1.31 14.4647 19.5347
616 1 9.48 14.5547 18.3647
617 1 9.33 15.7847 23.4147
618 1 1.31 20.9347 13.2547
619 1 11.25 15.9247 19.9547
620 1 11.7 12.7747 13.0447
621 1 7.63 14.4847 12.7247
622 1 8.86 21.9647 19.8447
623 1 2.01 23.9847 19.3347
624 1 8.02 23.7147 17.1047
625 1 5.82 21.6247 20.1547
626 1 8.11 23.6347 23.6647
627 1 5.94 13.2847 18.3547
628 1 1.88 24.1047 13.0847
629 1 4.66 23.7247 19.1747
630 1 10.32 18.7047 13.3347
631 1 2.01 23.5147 22.7747
632 1 5.36 14.5047 15.5847
633 1 8.56 20.0347 24.6147
634 1 10.51 18.2547 21.1047
635 1 2.37 18.6747 24.5447
636 1 0.3 21.2147 22.4947
637 1 9.47 24.5747 20.0147
638 1 1.41 14.7647 16.6147
639 1 9.69 16.1347 16.0047
640 1 0.75 21.6647 19.8347
641 2 11.09 15.3147 15.1847
642 2 5.51 17.9547 15.0447
643 2 0.24 19.2447 15.7347
644 2 4.28 16.6347 16.9047
645 2 3.63 24.0047 24.2047
646 2 6.53 24.5147 14.4347
647 2 5.37 21.5847 23.2947
648 2 5.74 22.7547 14.0847
649 2 8.71 23.5147 12.8547
650 2 0.27 13.4847 20.7147
651 2 5.46 19.5247 23.5947
652 2 3.84 16.6147 13.5047
653 2 11.55 22.6347 16.5947
654 2 3 20.6147 14.5847
655 2 9.53 22.4847 23.0047
656 2 11.18 17.2847 18.4947
657 2 0.68 16.2047 24.8847
658 2 0.43 17.9547 17.3247
659 2 9.51 21.9247 16.3847
660 2 9.08 18.3347 22.1247
661 2 7.92 16.2747 13.2447
662 2 4.23 15.6647 20.6547
663 2 5.27 18.3447 20.6347
664 2 4.44 23.3447 15.5847
665 2 6.93 17.0047 17.3347
666 2 11.88 14.0547 24.1947
667 2 6.79 20.9847 15.5347
668 2 5.62 17.4347 22.5747
669 2 3.09 19.1047 19.4247
670 2 11.73 20.6647 19.3047
671 2 8.4 15.8947 18.6247
672 2 4.64 14.8147 24.6047
673 2 0.74 24.1347 16.3047
674 2 1.1 17.7447 22.1647
675 2 7.54 21.5547 13.2747
676 2 11.36 18.6447 24.3447
677 2 5.85 14.6547 19.9747
678 2 8.81 14.4547 22.3347
679 2 2.17 14.8747 19.9047
680 2 10.1 14.9747 18.9947
681 2 9.07 16.7347 23.3547
682 2 0.64 20.5747 13.8947
683 2 11.12 16.6447 20.5847
684 2 11.03 24.4747 13.0247
685 2 6.83 14.2847 24.6347
686 2 9.13 22.8947 19.6947
687 2 1.76 24.8847 19.2447
688 2 7.37 24.3247 17.5247
689 2 5.59 20.7347 19.8847
690 2 8.14 24.5647 23.3047
691 2 5.48 12.5047 18.7647
692 2 0.99 24.4347 12.8547
693 2 4.54 23.3947 18.2347
694 2 10.94 18.7347 14.0947
695 2 2.52 22.9947 22.2047
696 2 4.74 14.8547 14.8647
697 2 8.84 20.7147 24.0047
698 2 10.89 18.5047 22.0247
699 2 2.15 18.4347 23.6247
700 2 0.49 21.5047 21.5747
701 2 8.69 24.7847 20.5947
702 2 1.76 13.8847 16.5147
703 2 10.05 16.8847 16.5447
704 2 1.44 20.9347 19.7647
705 2 12.25 15.7647 14.1247
706 2 6.27 18.6647 14.0047
707 2 11.5 20.2947 15.5847
708 2 2.96 15.8847 17.0547
709 2 5.04 23.6147 23.7447
710 2 7.6 24.8347 15.4747
711 2 5.94 22.1247 21.8147
712 2 4.93 23.9047 13.4047
713 2 8.92 24.1247 14.1347
714 2 12.07 13.8047 21.9847
715 2 4.17 19.7247 24.2447
716 2 2.67 15.5347 13.4947
717 2 11.89 23.0347 18.0047
718 2 4.27 19.6747 14.6047
719 2 10.8 21.6647 22.6247
720 2 10.68 18.6447 17.8847
721 2 1.51 17.3447 12.9747
722 2 1.94 17.8047 17.0547
723 2 10.02 22.0847 14.9147
724 2 8.41 18.8747 23.4847
725 2 8.58 16.7347 14.4547
726 2 3.12 16.7247 20.8547
727 2 5.12 17.9847 19.0447
728 2 3.97 22.0247 16.3347
729 2 6.17 16.0747 16.3447
730 2 11.4 15.3647 23.4347
731 2 5.96 20.4647 16.7047
732 2 6.81 18.3447 22.2747
733 2 1.83 19.0347 18.6047
734 2 10.19 20.8047 19.3247
735 2 8.74 17.1147 19.5647
736 2 4.84 13.5247 23.8247
737 2 2.38 24.1547 16.1447
738 2 2.02 18.5447 21.3647
739 2 6.05 20.9247 13.0547
740 2 12.12 19.4947 23.2547
741 2 6.81 15.9047 19.7547
742 2 7.52 14.4347 21.5447
743 2 1.25 14.7047 18.6247
744 2 9.31 13.6347 18.7947
745 2 8.84 15.3447 24.1347
746 2 1.39 21.8847 13.2947
747 2 12.13 15.6647 19.9447
748 2 11.38 13.3947 13.7847
749 2 7.43 14.2647 13.6847
750 2 9.15 21.8747 20.7247
751 2 2.97 24.1047 19.3247
752 2 7.5 22.8747 16.9147
753 2 6.69 21.8447 19.9147
754 2 7.29 23.2147 23.3747
755 2 5.45 13.5147 17.5647
756 2 1.92 24.0147 14.0647
757 2 5.05 22.9947 19.7047
758 2 9.73 17.9647 13.5547
759 2 1.73 24.2947 22.2647
760 2 6.02 14.0147 15.1147
761 2 9.34 19.6447 12.6547
762 2 10.71 19.0047 20.4147
763 2 1.86 19.4747 24.8147
764 2 1.08 21.6047 23.0347
765 2 10.19 24.8347 20.5947
766 2 0.92 15.0047 15.7247
767 2 9.34 15.4547 16.6147
768 2 1.11 22.5347 19.6547
961 1 11.83 15.0047 27.0694
962 1 5.36 18.4447 26.6994
963 1 12.17 19.7847 27.5994
964 1 3.38 16.7247 29.7294
965 1 4.54 24.1747 36.7894
966 1 7.34 12.6247 27.0694
967 1 5.73 22.3447 35.1994
968 1 5.32 23.6347 26.7194
969 1 9.39 23.5847 25.9894
970 1 12.06 13.0847 33.8094
971 1 5.01 20.1647 36.6294
972 1 3.64 15.6347 25.9694
973 1 11.88 23.3447 29.5894
974 1 3.88 20.4947 27.3994
975 1 9.82 21.6047 35.0694
976 1 11 17.7547 30.0594
977 1 0.97 16.5647 25.7294
978 1 1.24 18.4347 29.6494
979 1 10.1 21.5347 28.2094
980 1 8.39 18.1647 35.2794
981 1 8.06 17.1647 26.1894
982 1 3.23 15.7847 33.1494
983 1 5.02 18.6547 32.1794
984 1 3.94 22.9947 28.8394
985 1 6.25 17.0047 29.0994
986 1 12.18 14.7947 35.9994
987 1 6.76 21.0147 28.9594
988 1 5.87 18.2847 34.6794
989 1 2.18 19.3547 31.8794
990 1 10.89 20.1347 31.6694
991 1 8.03 16.7247 31.4594
992 1 5.29 14.3647 36.4494
993 1 1.53 24.6047 28.3394
994 1 2.04 17.9347 34.5994
995 1 6.66 21.4947 26.0994
996 1 11.75 18.6247 35.8994
997 1 6.11 15.5147 32.8494
998 1 8.22 13.8247 34.3194
999 1 1.31 14.4647 31.9794
1000 1 9.48 14.5547 30.8094
1001 1 9.33 15.7847 35.8594
1002 1 1.31 20.9347 25.6994
1003 1 11.25 15.9247 32.3994
1004 1 11.7 12.7747 25.4894
1005 1 7.63 14.4847 25.1694
1006 1 8.86 21.9647 32.2894
1007 1 2.01 23.9847 31.7794
1008 1 8.02 23.7147 29.5494
1009 1 5.82 21.6247 32.5994
1010 1 8.11 23.6347 36.1094
1011 1 5.94 13.2847 30.7994
1012 1 1.88 24.1047 25.5294
1013 1 4.66 23.7247 31.6194
1014 1 10.32 18.7047 25.7794
1015 1 2.01 23.5147 35.2194
1016 1 5.36 14.5047 28.0294
1017 1 8.56 20.0347 37.0594
1018 1 10.51 18.2547 33.5494
1019 1 2.37 18.6747 36.9894
1020 1 0.3 21.2147 34.9394
1021 1 9.47 24.5747 32.4594
1022 1 1.41 14.7647 29.0594
1023 1 9.69 16.1347 28.4494
1024 1 0.75 21.6647 32.2794
1025 2 11.09 15.3147 27.6294
1026 2 5.51 17.9547 27.4894
1027 2 0.24 19.2447 28.1794
1028 2 4.28 16.6347 29.3494
1029 2 3.63 24.0047 36.6494
1030 2 6.53 24.5147 26.8794
1031 2 5.37 21.5847 35.7394
1032 2 5.74 22.7547 26.5294
1033 2 8.71 23.5147 25.2994
1034 2 0.27 13.4847 33.1594
1035 2 5.46 19.5247 36.0394
1036 2 3.84 16.6147 25.9494
1037 2 11.55 22.6347 29.0394
1038 2 3 20.6147 27.0294
1039 2 9.53 22.4847 35.4494
1040 2 11.18 17.2847 30.9394
1041 2 0.68 16.2047 37.3294
1042 2 0.43 17.9547 29.7694
1043 2 9.51 21.9247 28.8294
1044 2 9.08 18.3347 34.5694
1045 2 7.92 16.2747 25.6894
1046 2 4.23 15.6647 33.0994
1047 2 5.27 18.3447 33.0794
1048 2 4.44 23.3447 28.0294
1049 2 6.93 17.0047 29.7794
1050 2 11.88 14.0547 36.6394
1051 2 6.79 20.9847 27.9794
1052 2 5.62 17.4347 35.0194
1053 2 3.09 19.1047 31.8694
1054 2 11.73 20.6647 31.7494
1055 2 8.4 15.8947 31.0694
1056 2 4.64 14.8147 37.0494
1057 2 0.74 24.1347 28.7494
1058 2 1.1 17.7447 34.6094
1059 2 7.54 21.5547 25.7194
1060 2 11.36 18.6447 36.7894
1061 2 5.85 14.6547 32.4194
1062 2 8.81 14.4547 34.7794
1063 2 2.17 14.8747 32.3494
1064 2 10.1 14.9747 31.4394
1065 2 9.07 16.7347 35.7994
1066 2 0.64 20.5747 26.3394
1067 2 11.12 16.6447 33.0294
1068 2 11.03 24.4747 25.4694
1069 2 6.83 14.2847 37.0794
1070 2 9.13 22.8947 32.1394
1071 2 1.76 24.8847 31.6894
1072 2 7.37 24.3247 29.9694
1073 2 5.59 20.7347 32.3294
1074 2 8.14 24.5647 35.7494
1075 2 5.48 12.5047 31.2094
1076 2 0.99 24.4347 25.2994
1077 2 4.54 23.3947 30.6794
1078 2 10.94 18.7347 26.5394
1079 2 2.52 22.9947 34.6494
1080 2 4.74 14.8547 27.3094
1081 2 8.84 20.7147 36.4494
1082 2 10.89 18.5047 34.4694
1083 2 2.15 18.4347 36.0694
1084 2 0.49 21.5047 34.0194
1085 2 8.69 24.7847 33.0394
1086 2 1.76 13.8847 28.9594
1087 2 10.05 16.8847 28.9894
1088 2 1.44 20.9347 32.2094
1089 2 12.25 15.7647 26.5694
1090 2 6.27 18.6647 26.4494
1091 2 11.5 20.2947 28.0294
1092 2 2.96 15.8847 29.4994
1093 2 5.04 23.6147 36.1894
1094 2 7.6 24.8347 27.9194
1095 2 5.94 22.1247 34.2594
1096 2 4.93 23.9047 25.8494
1097 2 8.92 24.1247 26.5794
1098 2 12.07 13.8047 34.4294
1099 2 4.17 19.7247 36.6894
1100 2 2.67 15.5347 25.9394
1101 2 11.89 23.0347 30.4494
1102 2 4.27 19.6747 27.0494
1103 2 10.8 21.6647 35.0694
1104 2 10.68 18.6447 30.3294
1105 2 1.51 17.3447 25.4194
1106 2 1.94 17.8047 29.4994
1107 2 10.02 22.0847 27.3594
1108 2 8.41 18.8747 35.9294
1109 2 8.58 16.7347 26.8994
1110 2 3.12 16.7247 33.2994
1111 2 5.12 17.9847 31.4894
1112 2 3.97 22.0247 28.7794
1113 2 6.17 16.0747 28.7894
1114 2 11.4 15.3647 35.8794
1115 2 5.96 20.4647 29.1494
1116 2 6.81 18.3447 34.7194
1117 2 1.83 19.0347 31.0494
1118 2 10.19 20.8047 31.7694
1119 2 8.74 17.1147 32.0094
1120 2 4.84 13.5247 36.2694
1121 2 2.38 24.1547 28.5894
1122 2 2.02 18.5447 33.8094
1123 2 6.05 20.9247 25.4994
1124 2 12.12 19.4947 35.6994
1125 2 6.81 15.9047 32.1994
1126 2 7.52 14.4347 33.9894
1127 2 1.25 14.7047 31.0694
1128 2 9.31 13.6347 31.2394
1129 2 8.84 15.3447 36.5794
1130 2 1.39 21.8847 25.7394
1131 2 12.13 15.6647 32.3894
1132 2 11.38 13.3947 26.2294
1133 2 7.43 14.2647 26.1294
1134 2 9.15 21.8747 33.1694
1135 2 2.97 24.1047 31.7694
1136 2 7.5 22.8747 29.3594
1137 2 6.69 21.8447 32.3594
1138 2 7.29 23.2147 35.8194
1139 2 5.45 13.5147 30.0094
1140 2 1.92 24.0147 26.5094
1141 2 5.05 22.9947 32.1494
1142 2 9.73 17.9647 25.9994
1143 2 1.73 24.2947 34.7094
1144 2 6.02 14.0147 27.5594
1145 2 9.34 19.6447 25.0994
1146 2 10.71 19.0047 32.8594
1147 2 1.86 19.4747 37.2594
1148 2 1.08 21.6047 35.4794
1149 2 10.19 24.8347 33.0394
1150 2 0.92 15.0047 28.1694
1151 2 9.34 15.4547 29.0594
1152 2 1.11 22.5347 32.0994
ITEM: TIMESTEP
100
ITEM: NUMBER OF ATOMS
1152
ITEM: BOX BOUNDS xy xz yz pp pp pp
0.0000000000000000e+00 1.2444699999999999e+01 0.0000000000000000e+00
0.0000000000000000e+00 2.4889399999999998e+01 0.0000000000000000e+00
0.0000000000000000e+00 3.7334099999999999e+01 0.0000000000000000e+00
ITEM: ATOMS id type x y z
1 1 11.8315 2.24413 2.15846
2 1 5.25774 6.08419 1.73269
3 1 12.3164 7.28207 2.67633
4 1 2.99288 4.14632 4.86128
5 1 4.62406 12.1424 11.4284
6 1 7.27114 0.0125334 2.33896
7 1 5.23679 9.74995 10.0909
8 1 5.60564 11.4533 1.75376
9 1 9.32808 10.9613 0.714992
10 1 11.9793 0.421008 9.2874
11 1 5.14292 7.98472 11.5463
12 1 3.56949 3.20697 1.25719
13 1 11.8357 10.7778 4.7961
14 1 3.60157 7.69116 2.79995
15 1 10.0421 9.67188 10.4529
16 1 10.8019 5.08595 4.83676
17 1 0.889299 3.7085 0.752579
18 1 1.2165 6.33522 4.87963
19 1 10.3145 9.07161 3.36693
20 1 8.18697 5.82148 10.4284
21 1 8.05438 4.25516 1.61995
22 1 3.05472 3.34107 8.89012
23 1 5.35754 6.3264 6.90278
24 1 3.86085 10.6133 3.97843
25 1 6.35735 4.87987 4.42885
26 1 12.1965 2.07557 11.0353
27 1 6.67388 8.26621 4.36599
28 1 5.79434 5.74495 10.0494
29 1 2.17308 6.88771 6.60853