ITEM: TIMESTEP
0
ITEM: NUMBER OF ATOMS
192
ITEM: BOX BOUNDS xy xz yz pp pp pp
0.0000000000000000e+00 1.2444699999999999e+01 0.0000000000000000e+00
0.0000000000000000e+00 1.2444699999999999e+01 0.0000000000000000e+00
0.0000000000000000e+00 1.2444699999999999e+01 0.0000000000000000e+00
ITEM: ATOMS id type x y z
1 1 11.83 2.56 2.18
2 1 5.36 6 1.81
3 1 12.17 7.34 2.71
4 1 3.38 4.28 4.84
5 1 4.54 11.73 11.9
6 1 7.34 0.18 2.18
7 1 5.73 9.9 10.31
8 1 5.32 11.19 1.83
9 1 9.39 11.14 1.1
10 1 12.06 0.64 8.92
11 1 5.01 7.72 11.74
12 1 3.64 3.19 1.08
13 1 11.88 10.9 4.7
14 1 3.88 8.05 2.51
15 1 9.82 9.16 10.18
16 1 11 5.31 5.17
17 1 0.97 4.12 0.84
18 1 1.24 5.99 4.76
19 1 10.1 9.09 3.32
20 1 8.39 5.72 10.39
21 1 8.06 4.72 1.3
22 1 3.23 3.34 8.26
23 1 5.02 6.21 7.29
24 1 3.94 10.55 3.95
25 1 6.25 4.56 4.21
26 1 12.18 2.35 11.11
27 1 6.76 8.57 4.07
28 1 5.87 5.84 9.79
29 1 2.18 6.91 6.99
30 1 10.89 7.69 6.78
31 1 8.03 4.28 6.57
32 1 5.29 1.92 11.56
33 1 1.53 12.16 3.45
34 1 2.04 5.49 9.71
35 1 6.66 9.05 1.21
36 1 11.75 6.18 11.01
37 1 6.11 3.07 7.96
38 1 8.22 1.38 9.43
39 1 1.31 2.02 7.09
40 1 9.48 2.11 5.92
41 1 9.33 3.34 10.97
42 1 1.31 8.49 0.81
43 1 11.25 3.48 7.51
44 1 11.7 0.33 0.6
45 1 7.63 2.04 0.28
46 1 8.86 9.52 7.4
47 1 2.01 11.54 6.89
48 1 8.02 11.27 4.66
49 1 5.82 9.18 7.71
50 1 8.11 11.19 11.22
51 1 5.94 0.84 5.91
52 1 1.88 11.66 0.64
53 1 4.66 11.28 6.73
54 1 10.32 6.26 0.89
55 1 2.01 11.07 10.33
56 1 5.36 2.06 3.14
57 1 8.56 7.59 12.17
58 1 10.51 5.81 8.66
59 1 2.37 6.23 12.1
60 1 0.3 8.77 10.05
61 1 9.47 12.13 7.57
62 1 1.41 2.32 4.17
63 1 9.69 3.69 3.56
64 1 0.75 9.22 7.39
65 2 11.09 2.87 2.74
66 2 5.51 5.51 2.6
67 2 0.24 6.8 3.29
68 2 4.28 4.19 4.46
69 2 3.63 11.56 11.76
70 2 6.53 12.07 1.99
71 2 5.37 9.14 10.85
72 2 5.74 10.31 1.64
73 2 8.71 11.07 0.41
74 2 0.27 1.04 8.27
75 2 5.46 7.08 11.15
76 2 3.84 4.17 1.06
77 2 11.55 10.19 4.15
78 2 3 8.17 2.14
79 2 9.53 10.04 10.56
80 2 11.18 4.84 6.05
81 2 0.68 3.76 12.44
82 2 0.43 5.51 4.88
83 2 9.51 9.48 3.94
84 2 9.08 5.89 9.68
85 2 7.92 3.83 0.8
86 2 4.23 3.22 8.21
87 2 5.27 5.9 8.19
88 2 4.44 10.9 3.14
89 2 6.93 4.56 4.89
90 2 11.88 1.61 11.75
91 2 6.79 8.54 3.09
92 2 5.62 4.99 10.13
93 2 3.09 6.66 6.98
94 2 11.73 8.22 6.86
95 2 8.4 3.45 6.18
96 2 4.64 2.37 12.16
97 2 0.74 11.69 3.86
98 2 1.1 5.3 9.72
99 2 7.54 9.11 0.83
100 2 11.36 6.2 11.9
101 2 5.85 2.21 7.53
102 2 8.81 2.01 9.89
103 2 2.17 2.43 7.46
104 2 10.1 2.53 6.55
105 2 9.07 4.29 10.91
106 2 0.64 8.13 1.45
107 2 11.12 4.2 8.14
108 2 11.03 12.03 0.58
109 2 6.83 1.84 12.19
110 2 9.13 10.45 7.25
111 2 1.76 12.44 6.8
112 2 7.37 11.88 5.08
113 2 5.59 8.29 7.44
114 2 8.14 12.12 10.86
115 2 5.48 0.06 6.32
116 2 0.99 11.99 0.41
117 2 4.54 10.95 5.79
118 2 10.94 6.29 1.65
119 2 2.52 10.55 9.76
120 2 4.74 2.41 2.42
121 2 8.84 8.27 11.56
122 2 10.89 6.06 9.58
123 2 2.15 5.99 11.18
124 2 0.49 9.06 9.13
125 2 8.69 12.34 8.15
126 2 1.76 1.44 4.07
127 2 10.05 4.44 4.1
128 2 1.44 8.49 7.32
129 2 12.25 3.32 1.68
130 2 6.27 6.22 1.56
131 2 11.5 7.85 3.14
132 2 2.96 3.44 4.61
133 2 5.04 11.17 11.3
134 2 7.6 12.39 3.03
135 2 5.94 9.68 9.37
136 2 4.93 11.46 0.96
137 2 8.92 11.68 1.69
138 2 12.07 1.36 9.54
139 2 4.17 7.28 11.8
140 2 2.67 3.09 1.05
141 2 11.89 10.59 5.56
142 2 4.27 7.23 2.16
143 2 10.8 9.22 10.18
144 2 10.68 6.2 5.44
145 2 1.51 4.9 0.53
146 2 1.94 5.36 4.61
147 2 10.02 9.64 2.47
148 2 8.41 6.43 11.04
149 2 8.58 4.29 2.01
150 2 3.12 4.28 8.41
151 2 5.12 5.54 6.6
152 2 3.97 9.58 3.89
153 2 6.17 3.63 3.9
154 2 11.4 2.92 10.99
155 2 5.96 8.02 4.26
156 2 6.81 5.9 9.83
157 2 1.83 6.59 6.16
158 2 10.19 8.36 6.88
159 2 8.74 4.67 7.12
160 2 4.84 1.08 11.38
161 2 2.38 11.71 3.7
162 2 2.02 6.1 8.92
163 2 6.05 8.48 0.61
164 2 12.12 7.05 10.81
165 2 6.81 3.46 7.31
166 2 7.52 1.99 9.1
167 2 1.25 2.26 6.18
168 2 9.31 1.19 6.35
169 2 8.84 2.9 11.69
170 2 1.39 9.44 0.85
171 2 12.13 3.22 7.5
172 2 11.38 0.95 1.34
173 2 7.43 1.82 1.24
174 2 9.15 9.43 8.28
175 2 2.97 11.66 6.88
176 2 7.5 10.43 4.47
177 2 6.69 9.4 7.47
178 2 7.29 10.77 10.93
179 2 5.45 1.07 5.12
180 2 1.92 11.57 1.62
181 2 5.05 10.55 7.26
182 2 9.73 5.52 1.11
183 2 1.73 11.85 9.82
184 2 6.02 1.57 2.67
185 2 9.34 7.2 0.21
186 2 10.71 6.56 7.97
187 2 1.86 7.03 12.37
188 2 1.08 9.16 10.59
189 2 10.19 12.39 8.15
190 2 0.92 2.56 3.28
191 2 9.34 3.01 4.17
192 2 1.11 10.09 7.21
ITEM: TIMESTEP
100
ITEM: NUMBER OF ATOMS
192
ITEM: BOX BOUNDS xy xz yz pp pp pp
0.0000000000000000e+00 1.2444699999999999e+01 0.0000000000000000e+00
0.0000000000000000e+00 1.2444699999999999e+01 0.0000000000000000e+00
0.0000000000000000e+00 1.2444699999999999e+01 0.0000000000000000e+00
ITEM: ATOMS id type x y z
1 1 11.8542 2.27145 2.15186
2 1 5.27206 6.07621 1.76093
3 1 12.3393 7.29515 2.70481
4 1 3.01947 4.15586 4.84684
5 1 4.68545 12.1612 11.5329
6 1 7.39028 0.0534235 2.36064
7 1 5.28801 9.72956 10.1602
8 1 5.5581 11.4504 1.78048
9 1 9.33466 11.0214 0.741958
10 1 12.0343 0.388027 9.25939
11 1 5.18031 7.97816 11.4886
12 1 3.5587 3.23036 1.28515
13 1 11.8723 10.7798 4.79128
14 1 3.65172 7.6845 2.80118
15 1 10.0309 9.67603 10.4623
16 1 10.8379 5.088 4.83258
17 1 0.850823 3.77984 0.613404
18 1 1.24387 6.3326 4.88052
19 1 10.3543 9.08817 3.36752
20 1 8.16697 5.80625 10.4013
21 1 8.11506 4.27636 1.58632
22 1 3.08971 3.33829 8.89608
23 1 5.39214 6.32756 6.91663
24 1 3.8808 10.6086 3.98756
25 1 6.39012 4.86762 4.4117
26 1 12.2059 2.04566 11.0131
27 1 6.71318 8.25801 4.37395
28 1 5.86359 5.76487 10.0552
29 1 2.21168 6.88208 6.61475
30 1 10.36 7.53954 6.9768
31 1 7.7385 4.31157 6.64148
32 1 5.09758 2.18885 11.6877
33 1 1.50521 12.0574 3.5325
34 1 2.19648 5.7437 9.79819
35 1 7.225 9.05968 1.18385
36 1 11.5159 6.31285 11.3113
37 1 5.99602 3.15929 8.11237
38 1 8.42745 1.11453 9.25866
39 1 1.72151 1.98261 6.9313
40 1 9.56524 2.0425 5.90813
41 1 9.1215 3.3808 10.7036
42 1 1.2305 8.54733 0.870033
43 1 11.1682 3.49782 7.35731
44 1 11.8097 0.375082 0.458792
45 1 7.65422 2.0474 12.2929
46 1 8.70671 9.76658 7.24607
47 1 2.27864 11.8038 6.72822
48 1 7.99414 11.4361 5.04898
49 1 5.74196 8.8724 7.61816
50 1 8.33725 11.1766 11.3277
51 1 5.60503 1.03881 5.64472
52 1 1.79756 11.5843 0.978187
53 1 4.54813 11.3703 6.64397
54 1 10.3806 6.55226 0.67105
55 1 2.02011 11.1222 10.4382
56 1 5.07355 2.27261 3.03846
57 1 8.82149 7.29244 12.3721
58 1 10.7152 5.69692 8.31234
59 1 2.34554 6.28895 11.8079
60 1 0.707885 9.06163 10.1758
61 1 9.15506 12.0793 7.53492
62 1 1.63352 2.06762 4.61181
63 1 9.84167 3.79771 3.53337
64 1 0.859214 8.8236 7.13154
65 2 11.4283 1.41694 2.32106
66 2 5.51725 5.34487 2.28307
67 2 0.536952 7.84845 3.14453
68 2 3.78438 4.7759 4.85464
69 2 4.31915 11.1912 11.4556
70 2 6.751 11.7203 2.18499
71 2 5.0589 8.69757 10.4202
72 2 5.70332 10.9331 0.973405
73 2 8.50291 11.3697 0.346949
74 2 12.3532 0.71524 8.42787
75 2 5.57649 7.05585 11.4793
76 2 2.98924 3.6071 0.646382
77 2 11.7472 11.3615 4.00467
78 2 2.78264 7.9126 3.03879
79 2 9.63114 10.6363 10.4277
80 2 11.0857 5.11962 5.74906
81 2 0.344721 4.36786 0.0813439
82 2 1.34311 5.46743 5.33208
83 2 9.71471 9.23479 4.03677
84 2 7.95122 6.50531 9.76309
85 2 7.69623 4.6679 0.849384
86 2 2.88085 2.53042 9.40705
87 2 5.21646 5.87154 7.76444
88 2 4.32601 10.1874 3.26233
89 2 7.12808 5.48 4.47624
90 2 0.489971 1.48106 11.3891
91 2 7.33487 8.0259 3.71303
92 2 5.31925 5.26393 10.6124
93 2 3.00101 6.98594 7.05892
94 2 11.2784 7.52663 6.65201
95 2 8.6206 3.87188 6.57008
96 2 4.62479 2.85584 11.224
97 2 1.08984 12.3123 4.38176
98 2 1.54776 5.08719 9.69827
99 2 7.66002 8.85512 0.318281
100 2 11.5489 6.41842 12.4003
101 2 5.84046 2.47955 7.39572
102 2 8.67679 1.7837 8.61923
103 2 1.85957 2.39874 7.78181
104 2 10.3358 1.75061 6.4259
105 2 9.31335 3.85901 11.5594
106 2 0.444665 9.06489 0.897305
107 2 10.3463 3.37723 7.85049
108 2 11.966 12.3432 12.0566
109 2 7.3038 1.20895 12.3142
110 2 8.9003 10.7189 7.44006
111 2 2.74488 12.3914 6.07663
112 2 7.12888 11.4465 5.61598
113 2 4.90011 8.66517 7.16455
114 2 8.05679 12.0555 10.9684
115 2 5.04446 0.661989 6.34788
116 2 1.47396 12.1221 0.235912
117 2 4.85967 10.5373 6.33034
118 2 10.7095 6.27859 1.49861
119 2 2.30795 10.6536 9.67042
120 2 5.13093 1.49041 2.47616
121 2 9.20241 7.84788 11.6537
122 2 11.1281 5.44293 9.16853
123 2 2.56957 5.64836 10.9937
124 2 0.616587 9.7753 9.56705
125 2 8.82679 0.300565 6.88403
126 2 2.35382 1.66763 4.17541
127 2 10.1551 4.31642 4.38047
128 2 1.77748 9.05368 6.89704
129 2 11.169 2.99097 2.19973
130 2 5.8773 6.17238 1.03483
131 2 11.5749 7.82864 2.77062
132 2 3.40371 3.42852 4.24696
133 2 5.59848 12.0762 11.7526
134 2 7.5047 0.109648 3.30686
135 2 5.80327 9.42736 9.38272
136 2 5.06667 12.2904 1.58364
137 2 9.09143 11.1524 1.65953
138 2 11.1241 0.875375 9.30904
139 2 4.16747 7.74187 11.5938
140 2 3.07469 2.43849 1.48237
141 2 10.9901 10.6917 5.07542
142 2 3.6977 6.71771 2.67496
143 2 10.9147 10.0486 10.7305
144 2 10.6629 5.98557 4.52618
145 2 0.793875 4.26152 1.49917
146 2 1.17838 6.07502 3.98924
147 2 9.94902 8.54277 2.7163
148 2 9.05285 5.93544 10.7706
149 2 7.32475 3.92081 2.03905
150 2 3.60072 3.94291 9.42932
151 2 5.62183 5.688 6.21834
152 2 3.07068 10.0841 4.04485
153 2 6.65565 4.18495 5.02414
154 2 11.7831 2.48518 11.789
155 2 6.47415 7.44896 4.84138
156 2 6.60696 5.09273 9.77242
157 2 2.59647 6.86598 5.72023
158 2 9.91745 8.15601 6.40281
159 2 7.86576 5.00908 7.27961
160 2 4.89454 1.32196 11.2455
161 2 2.25504 11.6306 3.94793
162 2 1.72664 6.59438 9.5873
163 2 6.25548 9.07505 1.04377
164 2 11.2015 7.17069 11.081
165 2 6.9094 3.42987 7.93452
166 2 7.4994 1.29159 9.48481
167 2 0.999297 2.60172 6.58028
168 2 9.55265 1.43242 5.21509
169 2 9.33088 2.47163 10.8362
170 2 1.83271 9.09298 0.382098
171 2 11.8731 4.06255 7.69569
172 2 11.8125 12.1307 1.09328
173 2 8.00102 2.23258 0.759957
174 2 8.64623 9.21877 8.01075
175 2 3.1186 11.542 7.26094
176 2 7.82709 10.7826 4.33775
177 2 6.30963 8.16663 7.33054
178 2 7.93894 10.4778 10.7781
179 2 4.88576 1.17583 5.0673
180 2 2.57306 12.0687 1.23524
181 2 5.01682 11.5286 7.45198
182 2 9.60141 5.9366 0.434161
183 2 2.03056 12.0574 10.2201
184 2 5.70282 2.17617 3.72755
185 2 9.44943 7.50575 0.684206
186 2 11.1063 6.66788 8.40464
187 2 1.48795 6.72674 11.5474
188 2 0.346258 9.50075 10.9753
189 2 10.098 11.9634 7.26627
190 2 1.3109 2.7303 3.99634
191 2 9.39922 3.01849 3.85744
192 2 0.328994 9.56527 6.85131
