LAMMPS (29 Oct 2020)
  using 1 OpenMP thread(s) per MPI task
# bulk water

units           metal
boundary        p p p
atom_style      atomic

neighbor        2.0 bin
neigh_modify    every 50 delay 0 check no

read_data	    ../lmp/water.lmp
Reading data file ...
  triclinic box = (0.0000000 0.0000000 0.0000000) to (12.444700 12.444700 12.444700) with tilt (0.0000000 0.0000000 0.0000000)
  1 by 1 by 1 MPI processor grid
  reading atoms ...
  192 atoms
  read_data CPU = 0.000 seconds
mass 		    1 16
mass		    2 2
replicate       1 1 3 bbox
Replicating atoms ...
  triclinic box = (0.0000000 0.0000000 0.0000000) to (12.444700 12.444700 37.334100) with tilt (0.0000000 0.0000000 0.0000000)
  1 by 1 by 1 MPI processor grid
  bounding box image = (0 0 0) to (0 0 0)
  bounding box extra memory = 0.02 MB
  average # of replicas added to proc = 3.00 out of 3 (100.00%)
  576 atoms
  replicate CPU = 0.000 seconds
pair_style	    deepmd ../../../model/water/graph-original.pb
Summary of lammps deepmd module ...
  >>> Info of deepmd-kit:
  installed to:       /home/guozhuoqiang/deepmd-kit/dp
  source:             v0.9.3-1445-gf3015a7-dirty
  source brach:       fugaku
  source commit:      f3015a7
  source commit at:   2021-09-02 09:00:02 +0800
  surpport model ver.:1.0 
  build float prec:   double
  build with tf inc:  /home/guozhuoqiang/software/tensorflow-gpu-2.4/include;/home/guozhuoqiang/software/tensorflow-gpu-2.4/include
  build with tf lib:  /home/guozhuoqiang/software/tensorflow-gpu-2.4/lib/libtensorflow_cc.so;/home/guozhuoqiang/software/tensorflow-gpu-2.4/lib/libtensorflow_framework.so
  set tf intra_op_parallelism_threads: 1
  set tf inter_op_parallelism_threads: 1
  >>> Info of lammps module:
  use deepmd-kit at:  /home/guozhuoqiang/deepmd-kit/dp
  source:             v0.9.3-1445-gf3015a7-dirty
  source branch:      fugaku
  source commit:      f3015a7
  source commit at:   2021-09-02 09:00:02 +0800
  build float prec:   double
  build with tf inc:  /home/guozhuoqiang/software/tensorflow-gpu-2.4/include;/home/guozhuoqiang/software/tensorflow-gpu-2.4/include
  build with tf lib:  /home/guozhuoqiang/software/tensorflow-gpu-2.4/lib/libtensorflow_cc.so;/home/guozhuoqiang/software/tensorflow-gpu-2.4/lib/libtensorflow_framework.so
  >>> Info of model(s):
  using   1 model(s): ../../../model/water/graph-original.pb 
  rcut in model:      6
  ntypes in model:    2
pair_coeff

velocity        all create 330.0 23456789

fix             1 all nvt temp 330.0 330.0 0.5
timestep        0.0005
thermo_style    custom step pe ke etotal temp press vol
thermo          20
# dump		    1 all custom 100 water.dump id type x y z

run             99
Neighbor list info ...
  update every 50 steps, delay 0 steps, check no
  max neighbors/atom: 2000, page size: 100000
  master list distance cutoff = 8
  ghost atom cutoff = 8
  binsize = 4, bins = 4 4 10
  1 neighbor lists, perpetual/occasional/extra = 1 0 0
  (1) pair deepmd, perpetual
      attributes: , newton on
      pair build: full/bin/atomonly
      stencil: full/bin/3d
      bin: standard
Setting up Verlet run ...
  Unit style    : metal
  Current step  : 0
  Time step     : 0.0005
Per MPI rank memory allocation (min/avg/max) = 3.074 | 3.074 | 3.074 Mbytes
Step PotEng KinEng TotEng Temp Press Volume 
       0   -89833.177    24.527113    -89808.65          330    1889.8597    5781.9529 
      20   -89832.417    23.770999   -89808.646    319.82687   -5581.6792    5781.9529 
      40   -89834.375     25.72155   -89808.653    346.07056    -5520.526    5781.9529 
      60   -89833.347    24.707146    -89808.64    332.42226    2212.4812    5781.9529 
      80   -89833.947    25.286488    -89808.66    340.21701    880.41006    5781.9529 
      99   -89832.101    23.463191   -89808.638    315.68547    -6551.887    5781.9529 
Loop time of 0.67664 on 1 procs for 99 steps with 576 atoms

Performance: 6.321 ns/day, 3.797 hours/ns, 146.311 timesteps/s
82.3% CPU use with 1 MPI tasks x 1 OpenMP threads

MPI task timing breakdown:
Section |  min time  |  avg time  |  max time  |%varavg| %total
---------------------------------------------------------------
Pair    | 0.66026    | 0.66026    | 0.66026    |   0.0 | 97.58
Neigh   | 0.0095279  | 0.0095279  | 0.0095279  |   0.0 |  1.41
Comm    | 0.0037894  | 0.0037894  | 0.0037894  |   0.0 |  0.56
Output  | 0.0001328  | 0.0001328  | 0.0001328  |   0.0 |  0.02
Modify  | 0.002193   | 0.002193   | 0.002193   |   0.0 |  0.32
Other   |            | 0.0007362  |            |       |  0.11

Nlocal:        576.000 ave         576 max         576 min
Histogram: 1 0 0 0 0 0 0 0 0 0
Nghost:        3721.00 ave        3721 max        3721 min
Histogram: 1 0 0 0 0 0 0 0 0 0
Neighs:        0.00000 ave           0 max           0 min
Histogram: 1 0 0 0 0 0 0 0 0 0

Total # of neighbors = 0
Ave neighs/atom = 0.0000000
Neighbor list builds = 1
Dangerous builds not checked

Please see the log.cite file for references relevant to this simulation

Total wall time: 0:00:02
