LAMMPS (29 Oct 2020)
  using 1 OpenMP thread(s) per MPI task
# bulk water

units           metal
boundary        p p p
atom_style      atomic

neighbor        2.0 bin
neigh_modify    every 50 delay 0 check no

read_data	    ../lmp/water.lmp
Reading data file ...
  triclinic box = (0.0000000 0.0000000 0.0000000) to (12.444700 12.444700 12.444700) with tilt (0.0000000 0.0000000 0.0000000)
  1 by 1 by 1 MPI processor grid
  reading atoms ...
  192 atoms
  read_data CPU = 0.000 seconds
mass 		    1 16
mass		    2 2
replicate       1 1 1 bbox
Replicating atoms ...
  triclinic box = (0.0000000 0.0000000 0.0000000) to (12.444700 12.444700 12.444700) with tilt (0.0000000 0.0000000 0.0000000)
  1 by 1 by 1 MPI processor grid
  bounding box image = (0 0 0) to (0 0 0)
  bounding box extra memory = 0.02 MB
  average # of replicas added to proc = 1.00 out of 1 (100.00%)
  192 atoms
  replicate CPU = 0.000 seconds
pair_style	    deepmd ../../../model/water/graph-compress.pb
Summary of lammps deepmd module ...
  >>> Info of deepmd-kit:
  installed to:       /home/guozhuoqiang/deepmd-kit/dp
  source:             v0.9.3-1445-gf3015a7-dirty
  source brach:       fugaku
  source commit:      f3015a7
  source commit at:   2021-09-02 09:00:02 +0800
  surpport model ver.:1.0 
  build float prec:   double
  build with tf inc:  /home/guozhuoqiang/software/tensorflow-gpu-2.4/include;/home/guozhuoqiang/software/tensorflow-gpu-2.4/include
  build with tf lib:  /home/guozhuoqiang/software/tensorflow-gpu-2.4/lib/libtensorflow_cc.so;/home/guozhuoqiang/software/tensorflow-gpu-2.4/lib/libtensorflow_framework.so
  set tf intra_op_parallelism_threads: 0
  set tf inter_op_parallelism_threads: 1
  >>> Info of lammps module:
  use deepmd-kit at:  /home/guozhuoqiang/deepmd-kit/dp
  source:             v0.9.3-1445-gf3015a7-dirty
  source branch:      fugaku
  source commit:      f3015a7
  source commit at:   2021-09-02 09:00:02 +0800
  build float prec:   double
  build with tf inc:  /home/guozhuoqiang/software/tensorflow-gpu-2.4/include;/home/guozhuoqiang/software/tensorflow-gpu-2.4/include
  build with tf lib:  /home/guozhuoqiang/software/tensorflow-gpu-2.4/lib/libtensorflow_cc.so;/home/guozhuoqiang/software/tensorflow-gpu-2.4/lib/libtensorflow_framework.so
  >>> Info of model(s):
  using   1 model(s): ../../../model/water/graph-compress.pb 
  rcut in model:      6
  ntypes in model:    2
pair_coeff

velocity        all create 330.0 23456789

fix             1 all nvt temp 330.0 330.0 0.5
timestep        0.0005
thermo_style    custom step pe ke etotal temp press vol
thermo          20
# dump		    1 all custom 100 water.dump id type x y z

run            99
Neighbor list info ...
  update every 50 steps, delay 0 steps, check no
  max neighbors/atom: 2000, page size: 100000
  master list distance cutoff = 8
  ghost atom cutoff = 8
  binsize = 4, bins = 4 4 4
  1 neighbor lists, perpetual/occasional/extra = 1 0 0
  (1) pair deepmd, perpetual
      attributes: , newton on
      pair build: full/bin/atomonly
      stencil: full/bin/3d
      bin: standard
Setting up Verlet run ...
  Unit style    : metal
  Current step  : 0
  Time step     : 0.0005
Per MPI rank memory allocation (min/avg/max) = 2.650 | 2.650 | 2.650 Mbytes
Step PotEng KinEng TotEng Temp Press Volume 
       0   -29944.392    8.1472669   -29936.245          330       1874.1    1927.3176 
      20   -29944.014    7.7699504   -29936.244    314.71703   -3048.6838    1927.3176 
      40   -29944.543     8.297766   -29936.245    336.09587   -5219.7742    1927.3176 
      60   -29944.177    7.9405241   -29936.237    321.62601    1792.6377    1927.3176 
      80   -29945.079    8.8299446   -29936.249    357.65143    492.97755    1927.3176 
      99   -29944.076    7.8404273   -29936.235    317.57165   -7784.4698    1927.3176 
Loop time of 0.331607 on 1 procs for 99 steps with 192 atoms

Performance: 12.897 ns/day, 1.861 hours/ns, 298.546 timesteps/s
91.8% CPU use with 1 MPI tasks x 1 OpenMP threads

MPI task timing breakdown:
Section |  min time  |  avg time  |  max time  |%varavg| %total
---------------------------------------------------------------
Pair    | 0.32805    | 0.32805    | 0.32805    |   0.0 | 98.93
Neigh   | 0.0017679  | 0.0017679  | 0.0017679  |   0.0 |  0.53
Comm    | 0.00096011 | 0.00096011 | 0.00096011 |   0.0 |  0.29
Output  | 5.3883e-05 | 5.3883e-05 | 5.3883e-05 |   0.0 |  0.02
Modify  | 0.00051379 | 0.00051379 | 0.00051379 |   0.0 |  0.15
Other   |            | 0.0002618  |            |       |  0.08

Nlocal:        192.000 ave         192 max         192 min
Histogram: 1 0 0 0 0 0 0 0 0 0
Nghost:        2103.00 ave        2103 max        2103 min
Histogram: 1 0 0 0 0 0 0 0 0 0
Neighs:        0.00000 ave           0 max           0 min
Histogram: 1 0 0 0 0 0 0 0 0 0

Total # of neighbors = 0
Ave neighs/atom = 0.0000000
Neighbor list builds = 1
Dangerous builds not checked

Please see the log.cite file for references relevant to this simulation

Total wall time: 0:00:07
