LAMMPS (29 Oct 2020)
# bulk water

units           metal
boundary        p p p
atom_style      atomic

neighbor        2.0 bin
neigh_modify    every 50 delay 0 check no

read_data	    ../lmp/water.lmp
Reading data file ...
  triclinic box = (0.0000000 0.0000000 0.0000000) to (12.444700 12.444700 12.444700) with tilt (0.0000000 0.0000000 0.0000000)
  2 by 2 by 4 MPI processor grid
  reading atoms ...
  192 atoms
  read_data CPU = 0.246 seconds
mass 		    1 16
mass		    2 2

replicate       3 4 4 bbox
Replicating atoms ...
  triclinic box = (0.0000000 0.0000000 0.0000000) to (37.334100 49.778800 49.778800) with tilt (0.0000000 0.0000000 0.0000000)
  2 by 2 by 4 MPI processor grid
  bounding box image = (0 0 0) to (0 0 0)
  bounding box extra memory = 0.02 MB
  average # of replicas added to proc = 7.81 out of 48 (16.28%)
  9216 atoms
  replicate CPU = 0.230 seconds

pair_style	    deepmd ../model/graph-original.pb
Summary of lammps deepmd module ...
  >>> Info of deepmd-kit:
  installed to:       /data/home/guozhuoqiang/deepmd-kit/dp
  source:             v1.2.2-786-gae60ca1
  source branch:       devel
  source commit:      ae60ca1
  source commit at:   2021-08-16 11:14:47 +0800
  surpport model ver.:1.0 
  build float prec:   double
  build with tf inc:  /data/home/guozhuoqiang/software/tensorflow-gpu-2.4/include;/data/home/guozhuoqiang/software/tensorflow-gpu-2.4/include
  build with tf lib:  /data/home/guozhuoqiang/software/tensorflow-gpu-2.4/lib/libtensorflow_cc.so;/data/home/guozhuoqiang/software/tensorflow-gpu-2.4/lib/libtensorflow_framework.so
  set tf intra_op_parallelism_threads: 1
  set tf inter_op_parallelism_threads: 1
  >>> Info of lammps module:
  use deepmd-kit at:  /data/home/guozhuoqiang/deepmd-kit/dp
  source:             v1.2.2-786-gae60ca1
  source branch:      devel
  source commit:      ae60ca1
  source commit at:   2021-08-16 11:14:47 +0800
  build float prec:   double
  build with tf inc:  /data/home/guozhuoqiang/software/tensorflow-gpu-2.4/include;/data/home/guozhuoqiang/software/tensorflow-gpu-2.4/include
  build with tf lib:  /data/home/guozhuoqiang/software/tensorflow-gpu-2.4/lib/libtensorflow_cc.so;/data/home/guozhuoqiang/software/tensorflow-gpu-2.4/lib/libtensorflow_framework.so
  >>> Info of model(s):
  using   1 model(s): ../model/graph-original.pb 
  rcut in model:      6
  ntypes in model:    2
pair_coeff

velocity        all create 330.0 23456789 loop local

fix             1 all nvt temp 330.0 330.0 0.5
timestep        0.0005
thermo_style    custom step pe ke etotal temp press vol
thermo          20
# dump		    1 all custom 100 water.dump id type x y z

run             99
Neighbor list info ...
  update every 50 steps, delay 0 steps, check no
  max neighbors/atom: 2000, page size: 100000
  master list distance cutoff = 8
  ghost atom cutoff = 8
  binsize = 4, bins = 10 13 13
  1 neighbor lists, perpetual/occasional/extra = 1 0 0
  (1) pair deepmd, perpetual
      attributes: , newton on
      pair build: full/bin/atomonly
      stencil: full/bin/3d
      bin: standard
Setting up Verlet run ...
  Unit style    : metal
  Current step  : 0
  Time step     : 0.0005
Per MPI rank memory allocation (min/avg/max) = 3.119 | 3.120 | 3.121 Mbytes
Step PotEng KinEng TotEng Temp Press Volume 
       0   -1437330.8    393.07364   -1436937.8          330    1897.2471    92511.246 
      20   -1437323.1    385.31723   -1436937.8     323.4882    -1191.586    92511.246 
      40   -1437338.5    400.71853   -1436937.8    336.41817   -4971.2409    92511.246 
      60   -1437338.3    400.61762   -1436937.7    336.33345   -1336.6795    92511.246 
      80   -1437338.1    400.27589   -1436937.9    336.04656    337.54991    92511.246 
      99   -1437321.9    384.19259   -1436937.7    322.54403    -3902.882    92511.246 
Loop time of 199.443 on 16 procs for 99 steps with 9216 atoms

Performance: 0.021 ns/day, 1119.206 hours/ns, 0.496 timesteps/s
82.6% CPU use with 16 MPI tasks x no OpenMP threads

MPI task timing breakdown:
Section |  min time  |  avg time  |  max time  |%varavg| %total
---------------------------------------------------------------
Pair    | 167.17     | 171.39     | 173.76     |  12.5 | 85.93
Neigh   | 0.0046253  | 0.0070574  | 0.017381   |   5.8 |  0.00
Comm    | 21.949     | 24.562     | 28.978     |  34.4 | 12.32
Output  | 0.23225    | 0.28084    | 0.31816    |   3.7 |  0.14
Modify  | 2.968      | 3.1695     | 3.4511     |   7.5 |  1.59
Other   |            | 0.03241    |            |       |  0.02

Nlocal:        576.000 ave         583 max         569 min
Histogram: 2 0 2 4 0 2 2 0 1 3
Nghost:        3444.31 ave        3484 max        3408 min
Histogram: 4 1 2 1 0 0 2 2 3 1
Neighs:        0.00000 ave           0 max           0 min
Histogram: 16 0 0 0 0 0 0 0 0 0

Total # of neighbors = 0
Ave neighs/atom = 0.0000000
Neighbor list builds = 1
Dangerous builds not checked

Please see the log.cite file for references relevant to this simulation

Total wall time: 0:03:26
