ITEM: TIMESTEP
0
ITEM: NUMBER OF ATOMS
192
ITEM: BOX BOUNDS xy xz yz pp pp pp
0.0000000000000000e+00 1.2444699999999999e+01 0.0000000000000000e+00
0.0000000000000000e+00 1.2444699999999999e+01 0.0000000000000000e+00
0.0000000000000000e+00 1.2444699999999999e+01 0.0000000000000000e+00
ITEM: ATOMS id type x y z
1 1 11.83 2.56 2.18
2 1 5.36 6 1.81
3 1 12.17 7.34 2.71
4 1 3.38 4.28 4.84
5 1 4.54 11.73 11.9
6 1 7.34 0.18 2.18
7 1 5.73 9.9 10.31
8 1 5.32 11.19 1.83
9 1 9.39 11.14 1.1
10 1 12.06 0.64 8.92
11 1 5.01 7.72 11.74
12 1 3.64 3.19 1.08
13 1 11.88 10.9 4.7
14 1 3.88 8.05 2.51
15 1 9.82 9.16 10.18
16 1 11 5.31 5.17
17 1 0.97 4.12 0.84
18 1 1.24 5.99 4.76
19 1 10.1 9.09 3.32
20 1 8.39 5.72 10.39
21 1 8.06 4.72 1.3
22 1 3.23 3.34 8.26
23 1 5.02 6.21 7.29
24 1 3.94 10.55 3.95
25 1 6.25 4.56 4.21
26 1 12.18 2.35 11.11
27 1 6.76 8.57 4.07
28 1 5.87 5.84 9.79
29 1 2.18 6.91 6.99
30 1 10.89 7.69 6.78
31 1 8.03 4.28 6.57
32 1 5.29 1.92 11.56
33 1 1.53 12.16 3.45
34 1 2.04 5.49 9.71
35 1 6.66 9.05 1.21
36 1 11.75 6.18 11.01
37 1 6.11 3.07 7.96
38 1 8.22 1.38 9.43
39 1 1.31 2.02 7.09
40 1 9.48 2.11 5.92
41 1 9.33 3.34 10.97
42 1 1.31 8.49 0.81
43 1 11.25 3.48 7.51
44 1 11.7 0.33 0.6
45 1 7.63 2.04 0.28
46 1 8.86 9.52 7.4
47 1 2.01 11.54 6.89
48 1 8.02 11.27 4.66
49 1 5.82 9.18 7.71
50 1 8.11 11.19 11.22
51 1 5.94 0.84 5.91
52 1 1.88 11.66 0.64
53 1 4.66 11.28 6.73
54 1 10.32 6.26 0.89
55 1 2.01 11.07 10.33
56 1 5.36 2.06 3.14
57 1 8.56 7.59 12.17
58 1 10.51 5.81 8.66
59 1 2.37 6.23 12.1
60 1 0.3 8.77 10.05
61 1 9.47 12.13 7.57
62 1 1.41 2.32 4.17
63 1 9.69 3.69 3.56
64 1 0.75 9.22 7.39
65 2 11.09 2.87 2.74
66 2 5.51 5.51 2.6
67 2 0.24 6.8 3.29
68 2 4.28 4.19 4.46
69 2 3.63 11.56 11.76
70 2 6.53 12.07 1.99
71 2 5.37 9.14 10.85
72 2 5.74 10.31 1.64
73 2 8.71 11.07 0.41
74 2 0.27 1.04 8.27
75 2 5.46 7.08 11.15
76 2 3.84 4.17 1.06
77 2 11.55 10.19 4.15
78 2 3 8.17 2.14
79 2 9.53 10.04 10.56
80 2 11.18 4.84 6.05
81 2 0.68 3.76 12.44
82 2 0.43 5.51 4.88
83 2 9.51 9.48 3.94
84 2 9.08 5.89 9.68
85 2 7.92 3.83 0.8
86 2 4.23 3.22 8.21
87 2 5.27 5.9 8.19
88 2 4.44 10.9 3.14
89 2 6.93 4.56 4.89
90 2 11.88 1.61 11.75
91 2 6.79 8.54 3.09
92 2 5.62 4.99 10.13
93 2 3.09 6.66 6.98
94 2 11.73 8.22 6.86
95 2 8.4 3.45 6.18
96 2 4.64 2.37 12.16
97 2 0.74 11.69 3.86
98 2 1.1 5.3 9.72
99 2 7.54 9.11 0.83
100 2 11.36 6.2 11.9
101 2 5.85 2.21 7.53
102 2 8.81 2.01 9.89
103 2 2.17 2.43 7.46
104 2 10.1 2.53 6.55
105 2 9.07 4.29 10.91
106 2 0.64 8.13 1.45
107 2 11.12 4.2 8.14
108 2 11.03 12.03 0.58
109 2 6.83 1.84 12.19
110 2 9.13 10.45 7.25
111 2 1.76 12.44 6.8
112 2 7.37 11.88 5.08
113 2 5.59 8.29 7.44
114 2 8.14 12.12 10.86
115 2 5.48 0.06 6.32
116 2 0.99 11.99 0.41
117 2 4.54 10.95 5.79
118 2 10.94 6.29 1.65
119 2 2.52 10.55 9.76
120 2 4.74 2.41 2.42
121 2 8.84 8.27 11.56
122 2 10.89 6.06 9.58
123 2 2.15 5.99 11.18
124 2 0.49 9.06 9.13
125 2 8.69 12.34 8.15
126 2 1.76 1.44 4.07
127 2 10.05 4.44 4.1
128 2 1.44 8.49 7.32
129 2 12.25 3.32 1.68
130 2 6.27 6.22 1.56
131 2 11.5 7.85 3.14
132 2 2.96 3.44 4.61
133 2 5.04 11.17 11.3
134 2 7.6 12.39 3.03
135 2 5.94 9.68 9.37
136 2 4.93 11.46 0.96
137 2 8.92 11.68 1.69
138 2 12.07 1.36 9.54
139 2 4.17 7.28 11.8
140 2 2.67 3.09 1.05
141 2 11.89 10.59 5.56
142 2 4.27 7.23 2.16
143 2 10.8 9.22 10.18
144 2 10.68 6.2 5.44
145 2 1.51 4.9 0.53
146 2 1.94 5.36 4.61
147 2 10.02 9.64 2.47
148 2 8.41 6.43 11.04
149 2 8.58 4.29 2.01
150 2 3.12 4.28 8.41
151 2 5.12 5.54 6.6
152 2 3.97 9.58 3.89
153 2 6.17 3.63 3.9
154 2 11.4 2.92 10.99
155 2 5.96 8.02 4.26
156 2 6.81 5.9 9.83
157 2 1.83 6.59 6.16
158 2 10.19 8.36 6.88
159 2 8.74 4.67 7.12
160 2 4.84 1.08 11.38
161 2 2.38 11.71 3.7
162 2 2.02 6.1 8.92
163 2 6.05 8.48 0.61
164 2 12.12 7.05 10.81
165 2 6.81 3.46 7.31
166 2 7.52 1.99 9.1
167 2 1.25 2.26 6.18
168 2 9.31 1.19 6.35
169 2 8.84 2.9 11.69
170 2 1.39 9.44 0.85
171 2 12.13 3.22 7.5
172 2 11.38 0.95 1.34
173 2 7.43 1.82 1.24
174 2 9.15 9.43 8.28
175 2 2.97 11.66 6.88
176 2 7.5 10.43 4.47
177 2 6.69 9.4 7.47
178 2 7.29 10.77 10.93
179 2 5.45 1.07 5.12
180 2 1.92 11.57 1.62
181 2 5.05 10.55 7.26
182 2 9.73 5.52 1.11
183 2 1.73 11.85 9.82
184 2 6.02 1.57 2.67
185 2 9.34 7.2 0.21
186 2 10.71 6.56 7.97
187 2 1.86 7.03 12.37
188 2 1.08 9.16 10.59
189 2 10.19 12.39 8.15
190 2 0.92 2.56 3.28
191 2 9.34 3.01 4.17
192 2 1.11 10.09 7.21
ITEM: TIMESTEP
100
ITEM: NUMBER OF ATOMS
192
ITEM: BOX BOUNDS xy xz yz pp pp pp
0.0000000000000000e+00 1.2444699999999999e+01 0.0000000000000000e+00
0.0000000000000000e+00 1.2444699999999999e+01 0.0000000000000000e+00
0.0000000000000000e+00 1.2444699999999999e+01 0.0000000000000000e+00
ITEM: ATOMS id type x y z
1 1 11.8542 2.27136 2.15134
2 1 5.27204 6.07714 1.76184
3 1 12.3392 7.29546 2.70478
4 1 3.01864 4.15581 4.84713
5 1 4.68503 12.1608 11.5319
6 1 7.38932 0.0523294 2.35922
7 1 5.28675 9.72965 10.1598
8 1 5.55893 11.4504 1.78107
9 1 9.33484 11.0226 0.741619
10 1 12.035 0.389474 9.25974
11 1 5.18049 7.97762 11.4878
12 1 3.55848 3.23087 1.28515
13 1 11.8724 10.7796 4.79118
14 1 3.65227 7.68437 2.80054
15 1 10.0305 9.67673 10.4628
16 1 10.8378 5.088 4.83262
17 1 0.850905 3.77924 0.613101
18 1 1.24414 6.33264 4.88117
19 1 10.3554 9.08839 3.36727
20 1 8.16643 5.80623 10.4017
21 1 8.11557 4.27586 1.58644
22 1 3.08967 3.33841 8.89603
23 1 5.39226 6.32774 6.9173
24 1 3.88053 10.6083 3.98726
25 1 6.38985 4.86745 4.41165
26 1 12.2057 2.04408 11.0136
27 1 6.71332 8.25767 4.37363
28 1 5.86455 5.76537 10.0548
29 1 2.21138 6.88204 6.6134
30 1 10.3601 7.54013 6.97799
31 1 7.73752 4.31052 6.64082
32 1 5.09688 2.1885 11.6886
33 1 1.50432 12.0571 3.53195
34 1 2.19675 5.74389 9.79949
35 1 7.22423 9.05962 1.18414
36 1 11.5159 6.31316 11.3116
37 1 5.99544 3.1602 8.11203
38 1 8.42824 1.11395 9.2585
39 1 1.72185 1.98259 6.93144
40 1 9.56559 2.0434 5.90886
41 1 9.11984 3.38046 10.7039
42 1 1.23008 8.54653 0.870592
43 1 11.1675 3.49826 7.35663
44 1 11.8107 0.375654 0.459115
45 1 7.65351 2.04785 12.2922
46 1 8.70723 9.76708 7.24584
47 1 2.2789 11.8038 6.72766
48 1 7.99451 11.4363 5.05016
49 1 5.74102 8.87193 7.61876
50 1 8.3375 11.1759 11.3277
51 1 5.60487 1.03833 5.64482
52 1 1.79722 11.5842 0.978201
53 1 4.54801 11.3705 6.64409
54 1 10.38 6.55325 0.670474
55 1 2.01945 11.1217 10.4388
56 1 5.07328 2.27341 3.0385
57 1 8.82231 7.29065 12.3724
58 1 10.7155 5.69609 8.31183
59 1 2.34485 6.28855 11.8063
60 1 0.708807 9.06292 10.175
61 1 9.15409 12.0789 7.53474
62 1 1.63375 2.06775 4.61224
63 1 9.84251 3.79826 3.53325
64 1 0.860319 8.82285 7.13136
65 2 11.4296 1.41633 2.32108
66 2 5.51583 5.34422 2.28272
67 2 0.536521 7.85061 3.14325
68 2 3.78212 4.77766 4.85427
69 2 4.32158 11.1902 11.4556
70 2 6.74738 11.7187 2.18663
71 2 5.0583 8.69769 10.4194
72 2 5.70435 10.9332 0.972784
73 2 8.50288 11.3718 0.348234
74 2 12.3537 0.715255 8.42802
75 2 5.57711 7.05562 11.4809
76 2 2.98924 3.60492 0.64512
77 2 11.7483 11.3602 4.00337
78 2 2.78492 7.91462 3.04173
79 2 9.63301 10.638 10.4266
80 2 11.0875 5.12054 5.74836
81 2 0.345891 4.36957 0.0824859
82 2 1.34505 5.46807 5.33241
83 2 9.71595 9.23544 4.03676
84 2 7.94996 6.50652 9.76513
85 2 7.69804 4.66906 0.850058
86 2 2.87941 2.53085 9.4071
87 2 5.21759 5.87089 7.76484
88 2 4.32574 10.187 3.26223
89 2 7.12731 5.48047 4.47469
90 2 0.48954 1.47897 11.3915
91 2 7.33651 8.02577 3.71441
92 2 5.3199 5.26492 10.612
93 2 2.99989 6.98742 7.05835
94 2 11.2774 7.52416 6.65138
95 2 8.61982 3.87181 6.56888
96 2 4.62677 2.85562 11.2226
97 2 1.09103 12.3152 4.38176
98 2 1.54808 5.08755 9.69935
99 2 7.66129 8.85513 0.319608
100 2 11.5507 6.41872 12.4
101 2 5.84126 2.4783 7.39728
102 2 8.67651 1.78406 8.61944
103 2 1.86049 2.39831 7.78174
104 2 10.3353 1.75104 6.42734
105 2 9.31388 3.85769 11.5601
106 2 0.445719 9.06607 0.897048
107 2 10.346 3.37542 7.85004
108 2 11.966 12.3431 12.0571
109 2 7.30666 1.20771 12.3156
110 2 8.9013 10.7191 7.4411
111 2 2.74836 12.3902 6.07696
112 2 7.12785 11.4444 5.61521
113 2 4.89981 8.66512 7.16313
114 2 8.06032 12.0561 10.9695
115 2 5.04456 0.664436 6.34966
116 2 1.47326 12.1234 0.237316
117 2 4.85923 10.5374 6.33045
118 2 10.7078 6.27902 1.49798
119 2 2.30766 10.6515 9.67171
120 2 5.13096 1.48953 2.47934
121 2 9.20161 7.84613 11.6531
122 2 11.1277 5.44304 9.16824
123 2 2.57279 5.64753 10.9952
124 2 0.615661 9.77754 9.56769
125 2 8.82668 0.301711 6.8849
126 2 2.35558 1.66894 4.17753
127 2 10.1552 4.31611 4.38113
128 2 1.77741 9.05719 6.89847
129 2 11.1687 2.99019 2.201
130 2 5.87716 6.17011 1.03536
131 2 11.5737 7.82701 2.77116
132 2 3.40411 3.42943 4.24712
133 2 5.59788 12.078 11.7532
134 2 7.50414 0.112034 3.30478
135 2 5.80688 9.42816 9.38545
136 2 5.06855 12.2915 1.58524
137 2 9.09126 11.1505 1.65992
138 2 11.1238 0.875384 9.30745
139 2 4.16784 7.74135 11.593
140 2 3.07691 2.4372 1.48142
141 2 10.9895 10.6904 5.07414
142 2 3.6964 6.71758 2.67746
143 2 10.915 10.0475 10.7319
144 2 10.6625 5.98496 4.52556
145 2 0.795101 4.25866 1.50022
146 2 1.17771 6.07545 3.98983
147 2 9.94899 8.54317 2.71735
148 2 9.05249 5.93452 10.7697
149 2 7.32454 3.92124 2.03861
150 2 3.60111 3.94245 9.42954
151 2 5.62172 5.68886 6.21843
152 2 3.06954 10.0849 4.04333
153 2 6.65733 4.18549 5.02403
154 2 11.7866 2.48729 11.7892
155 2 6.47325 7.44885 4.84051
156 2 6.60712 5.09231 9.77184
157 2 2.59766 6.86561 5.72014
158 2 9.91651 8.15254 6.40063
159 2 7.86462 5.00845 7.27835
160 2 4.89529 1.32276 11.2437
161 2 2.25487 11.6319 3.94719
162 2 1.72656 6.59473 9.58985
163 2 6.2552 9.07356 1.04191
164 2 11.2001 7.1706 11.0816
165 2 6.90974 3.42974 7.93582
166 2 7.50037 1.29067 9.48612
167 2 0.99826 2.6011 6.58174
168 2 9.55388 1.43397 5.21571
169 2 9.33331 2.4719 10.8338
170 2 1.83411 9.09069 0.383323
171 2 11.8722 4.06355 7.69581
172 2 11.8095 12.1301 1.09192
173 2 8.00199 2.23567 0.758101
174 2 8.64575 9.21888 8.01001
175 2 3.11582 11.5422 7.26474
176 2 7.82951 10.7864 4.33559
177 2 6.30991 8.16767 7.32989
178 2 7.93919 10.4792 10.7754
179 2 4.88556 1.17435 5.06768
180 2 2.57348 12.0676 1.23409
181 2 5.01706 11.5289 7.45181
182 2 9.59976 5.93823 0.432591
183 2 2.0325 12.0565 10.2198
184 2 5.70046 2.17907 3.72951
185 2 9.4505 7.50657 0.684104
186 2 11.1065 6.6676 8.40369
187 2 1.48804 6.72586 11.5427
188 2 0.346392 9.4994 10.9754
189 2 10.0974 11.9644 7.26709
190 2 1.3107 2.72897 3.99605
191 2 9.40123 3.018 3.85576
192 2 0.327284 9.56365 6.85439
