ITEM: TIMESTEP
0
ITEM: NUMBER OF ATOMS
192
ITEM: BOX BOUNDS xy xz yz pp pp pp
0.0000000000000000e+00 1.2444699999999999e+01 0.0000000000000000e+00
0.0000000000000000e+00 1.2444699999999999e+01 0.0000000000000000e+00
0.0000000000000000e+00 1.2444699999999999e+01 0.0000000000000000e+00
ITEM: ATOMS id type x y z
1 1 11.83 2.56 2.18
2 1 5.36 6 1.81
3 1 12.17 7.34 2.71
4 1 3.38 4.28 4.84
5 1 4.54 11.73 11.9
6 1 7.34 0.18 2.18
7 1 5.73 9.9 10.31
8 1 5.32 11.19 1.83
9 1 9.39 11.14 1.1
10 1 12.06 0.64 8.92
11 1 5.01 7.72 11.74
12 1 3.64 3.19 1.08
13 1 11.88 10.9 4.7
14 1 3.88 8.05 2.51
15 1 9.82 9.16 10.18
16 1 11 5.31 5.17
17 1 0.97 4.12 0.84
18 1 1.24 5.99 4.76
19 1 10.1 9.09 3.32
20 1 8.39 5.72 10.39
21 1 8.06 4.72 1.3
22 1 3.23 3.34 8.26
23 1 5.02 6.21 7.29
24 1 3.94 10.55 3.95
25 1 6.25 4.56 4.21
26 1 12.18 2.35 11.11
27 1 6.76 8.57 4.07
28 1 5.87 5.84 9.79
29 1 2.18 6.91 6.99
30 1 10.89 7.69 6.78
31 1 8.03 4.28 6.57
32 1 5.29 1.92 11.56
33 1 1.53 12.16 3.45
34 1 2.04 5.49 9.71
35 1 6.66 9.05 1.21
36 1 11.75 6.18 11.01
37 1 6.11 3.07 7.96
38 1 8.22 1.38 9.43
39 1 1.31 2.02 7.09
40 1 9.48 2.11 5.92
41 1 9.33 3.34 10.97
42 1 1.31 8.49 0.81
43 1 11.25 3.48 7.51
44 1 11.7 0.33 0.6
45 1 7.63 2.04 0.28
46 1 8.86 9.52 7.4
47 1 2.01 11.54 6.89
48 1 8.02 11.27 4.66
49 1 5.82 9.18 7.71
50 1 8.11 11.19 11.22
51 1 5.94 0.84 5.91
52 1 1.88 11.66 0.64
53 1 4.66 11.28 6.73
54 1 10.32 6.26 0.89
55 1 2.01 11.07 10.33
56 1 5.36 2.06 3.14
57 1 8.56 7.59 12.17
58 1 10.51 5.81 8.66
59 1 2.37 6.23 12.1
60 1 0.3 8.77 10.05
61 1 9.47 12.13 7.57
62 1 1.41 2.32 4.17
63 1 9.69 3.69 3.56
64 1 0.75 9.22 7.39
65 2 11.09 2.87 2.74
66 2 5.51 5.51 2.6
67 2 0.24 6.8 3.29
68 2 4.28 4.19 4.46
69 2 3.63 11.56 11.76
70 2 6.53 12.07 1.99
71 2 5.37 9.14 10.85
72 2 5.74 10.31 1.64
73 2 8.71 11.07 0.41
74 2 0.27 1.04 8.27
75 2 5.46 7.08 11.15
76 2 3.84 4.17 1.06
77 2 11.55 10.19 4.15
78 2 3 8.17 2.14
79 2 9.53 10.04 10.56
80 2 11.18 4.84 6.05
81 2 0.68 3.76 12.44
82 2 0.43 5.51 4.88
83 2 9.51 9.48 3.94
84 2 9.08 5.89 9.68
85 2 7.92 3.83 0.8
86 2 4.23 3.22 8.21
87 2 5.27 5.9 8.19
88 2 4.44 10.9 3.14
89 2 6.93 4.56 4.89
90 2 11.88 1.61 11.75
91 2 6.79 8.54 3.09
92 2 5.62 4.99 10.13
93 2 3.09 6.66 6.98
94 2 11.73 8.22 6.86
95 2 8.4 3.45 6.18
96 2 4.64 2.37 12.16
97 2 0.74 11.69 3.86
98 2 1.1 5.3 9.72
99 2 7.54 9.11 0.83
100 2 11.36 6.2 11.9
101 2 5.85 2.21 7.53
102 2 8.81 2.01 9.89
103 2 2.17 2.43 7.46
104 2 10.1 2.53 6.55
105 2 9.07 4.29 10.91
106 2 0.64 8.13 1.45
107 2 11.12 4.2 8.14
108 2 11.03 12.03 0.58
109 2 6.83 1.84 12.19
110 2 9.13 10.45 7.25
111 2 1.76 12.44 6.8
112 2 7.37 11.88 5.08
113 2 5.59 8.29 7.44
114 2 8.14 12.12 10.86
115 2 5.48 0.06 6.32
116 2 0.99 11.99 0.41
117 2 4.54 10.95 5.79
118 2 10.94 6.29 1.65
119 2 2.52 10.55 9.76
120 2 4.74 2.41 2.42
121 2 8.84 8.27 11.56
122 2 10.89 6.06 9.58
123 2 2.15 5.99 11.18
124 2 0.49 9.06 9.13
125 2 8.69 12.34 8.15
126 2 1.76 1.44 4.07
127 2 10.05 4.44 4.1
128 2 1.44 8.49 7.32
129 2 12.25 3.32 1.68
130 2 6.27 6.22 1.56
131 2 11.5 7.85 3.14
132 2 2.96 3.44 4.61
133 2 5.04 11.17 11.3
134 2 7.6 12.39 3.03
135 2 5.94 9.68 9.37
136 2 4.93 11.46 0.96
137 2 8.92 11.68 1.69
138 2 12.07 1.36 9.54
139 2 4.17 7.28 11.8
140 2 2.67 3.09 1.05
141 2 11.89 10.59 5.56
142 2 4.27 7.23 2.16
143 2 10.8 9.22 10.18
144 2 10.68 6.2 5.44
145 2 1.51 4.9 0.53
146 2 1.94 5.36 4.61
147 2 10.02 9.64 2.47
148 2 8.41 6.43 11.04
149 2 8.58 4.29 2.01
150 2 3.12 4.28 8.41
151 2 5.12 5.54 6.6
152 2 3.97 9.58 3.89
153 2 6.17 3.63 3.9
154 2 11.4 2.92 10.99
155 2 5.96 8.02 4.26
156 2 6.81 5.9 9.83
157 2 1.83 6.59 6.16
158 2 10.19 8.36 6.88
159 2 8.74 4.67 7.12
160 2 4.84 1.08 11.38
161 2 2.38 11.71 3.7
162 2 2.02 6.1 8.92
163 2 6.05 8.48 0.61
164 2 12.12 7.05 10.81
165 2 6.81 3.46 7.31
166 2 7.52 1.99 9.1
167 2 1.25 2.26 6.18
168 2 9.31 1.19 6.35
169 2 8.84 2.9 11.69
170 2 1.39 9.44 0.85
171 2 12.13 3.22 7.5
172 2 11.38 0.95 1.34
173 2 7.43 1.82 1.24
174 2 9.15 9.43 8.28
175 2 2.97 11.66 6.88
176 2 7.5 10.43 4.47
177 2 6.69 9.4 7.47
178 2 7.29 10.77 10.93
179 2 5.45 1.07 5.12
180 2 1.92 11.57 1.62
181 2 5.05 10.55 7.26
182 2 9.73 5.52 1.11
183 2 1.73 11.85 9.82
184 2 6.02 1.57 2.67
185 2 9.34 7.2 0.21
186 2 10.71 6.56 7.97
187 2 1.86 7.03 12.37
188 2 1.08 9.16 10.59
189 2 10.19 12.39 8.15
190 2 0.92 2.56 3.28
191 2 9.34 3.01 4.17
192 2 1.11 10.09 7.21
ITEM: TIMESTEP
100
ITEM: NUMBER OF ATOMS
192
ITEM: BOX BOUNDS xy xz yz pp pp pp
0.0000000000000000e+00 1.2444699999999999e+01 0.0000000000000000e+00
0.0000000000000000e+00 1.2444699999999999e+01 0.0000000000000000e+00
0.0000000000000000e+00 1.2444699999999999e+01 0.0000000000000000e+00
ITEM: ATOMS id type x y z
1 1 11.8542 2.27136 2.15136
2 1 5.27203 6.0771 1.7618
3 1 12.3392 7.29544 2.70478
4 1 3.01867 4.15582 4.84713
5 1 4.68504 12.1608 11.532
6 1 7.38934 0.0523616 2.35927
7 1 5.28679 9.72964 10.1598
8 1 5.5589 11.4504 1.78105
9 1 9.33485 11.0225 0.741631
10 1 12.035 0.38942 9.25973
11 1 5.18048 7.97763 11.4879
12 1 3.55848 3.23086 1.28514
13 1 11.8724 10.7796 4.79118
14 1 3.65225 7.68438 2.80056
15 1 10.0306 9.67671 10.4628
16 1 10.8379 5.088 4.83263
17 1 0.850921 3.77925 0.613105
18 1 1.24414 6.33266 4.88115
19 1 10.3553 9.08838 3.3673
20 1 8.16644 5.80623 10.4017
21 1 8.11554 4.27587 1.58644
22 1 3.08966 3.33841 8.89604
23 1 5.39226 6.32774 6.91727
24 1 3.88053 10.6083 3.98726
25 1 6.38987 4.86747 4.41165
26 1 12.2057 2.04413 11.0136
27 1 6.71331 8.25766 4.37364
28 1 5.86451 5.76537 10.0548
29 1 2.21139 6.88203 6.61345
30 1 10.3601 7.54009 6.97795
31 1 7.73755 4.31054 6.64083
32 1 5.0969 2.18852 11.6885
33 1 1.50434 12.0571 3.53196
34 1 2.19675 5.74389 9.79945
35 1 7.22426 9.05961 1.18413
36 1 11.5158 6.31314 11.3116
37 1 5.99547 3.16016 8.11205
38 1 8.4282 1.11396 9.25851
39 1 1.72183 1.98258 6.93144
40 1 9.56558 2.04337 5.90884
41 1 9.1199 3.38047 10.7038
42 1 1.23009 8.54656 0.870573
43 1 11.1675 3.49825 7.35664
44 1 11.8107 0.375634 0.459103
45 1 7.65354 2.04784 12.2923
46 1 8.70721 9.76706 7.24583
47 1 2.2789 11.8038 6.72768
48 1 7.99451 11.4363 5.05011
49 1 5.74104 8.87196 7.61874
50 1 8.3375 11.1759 11.3277
51 1 5.60488 1.03834 5.64482
52 1 1.79722 11.5842 0.978214
53 1 4.54802 11.3705 6.64409
54 1 10.38 6.55323 0.67047
55 1 2.01947 11.1217 10.4387
56 1 5.07329 2.27338 3.03851
57 1 8.8223 7.29068 12.3724
58 1 10.7155 5.69612 8.31184
59 1 2.34488 6.28856 11.8064
60 1 0.708782 9.0629 10.175
61 1 9.15413 12.0789 7.53475
62 1 1.63374 2.06774 4.61223
63 1 9.84248 3.79824 3.53326
64 1 0.86028 8.82288 7.13137
65 2 11.4295 1.41635 2.32109
66 2 5.51588 5.34424 2.28275
67 2 0.53653 7.85053 3.1433
68 2 3.78217 4.77763 4.85423
69 2 4.32147 11.1903 11.4556
70 2 6.74749 11.7187 2.18656
71 2 5.05826 8.6977 10.4194
72 2 5.70432 10.9332 0.972798
73 2 8.50291 11.3718 0.348187
74 2 12.3537 0.71526 8.42802
75 2 5.57711 7.05563 11.4808
76 2 2.98922 3.605 0.645161
77 2 11.7483 11.3602 4.0034
78 2 2.78484 7.91456 3.04161
79 2 9.63295 10.6379 10.4267
80 2 11.0875 5.12051 5.74838
81 2 0.345882 4.36949 0.0824076
82 2 1.34498 5.46807 5.33242
83 2 9.71589 9.23549 4.03673
84 2 7.95001 6.50649 9.76508
85 2 7.69796 4.669 0.850032
86 2 2.87947 2.53084 9.40709
87 2 5.21752 5.87095 7.76483
88 2 4.32572 10.187 3.26221
89 2 7.12736 5.48044 4.47478
90 2 0.489574 1.47904 11.3914
91 2 7.33645 8.02573 3.71436
92 2 5.3199 5.26489 10.612
93 2 2.99993 6.98737 7.05837
94 2 11.2774 7.52421 6.65139
95 2 8.61984 3.87181 6.56887
96 2 4.62664 2.85562 11.2226
97 2 1.09099 12.3151 4.38175
98 2 1.54806 5.08756 9.69936
99 2 7.66126 8.85506 0.319571
100 2 11.5506 6.41874 12.4
101 2 5.84122 2.47839 7.39719
102 2 8.67653 1.78404 8.61943
103 2 1.86046 2.39833 7.78174
104 2 10.3354 1.75104 6.42728
105 2 9.31382 3.85771 11.5601
106 2 0.445705 9.06607 0.897075
107 2 10.346 3.37549 7.85005
108 2 11.966 12.3431 12.0571
109 2 7.30658 1.20776 12.3155
110 2 8.90128 10.7191 7.44102
111 2 2.74827 12.3902 6.07695
112 2 7.12792 11.4445 5.61525
113 2 4.89981 8.66512 7.1632
114 2 8.06026 12.0561 10.9695
115 2 5.04456 0.664311 6.34961
116 2 1.47329 12.1234 0.237261
117 2 4.85922 10.5374 6.33044
118 2 10.7078 6.27903 1.49799
119 2 2.30767 10.6516 9.67167
120 2 5.131 1.48956 2.47923
121 2 9.20166 7.84618 11.6532
122 2 11.1277 5.44302 9.16825
123 2 2.57277 5.64756 10.9952
124 2 0.615698 9.7775 9.56768
125 2 8.82668 0.301637 6.88483
126 2 2.35553 1.66889 4.17747
127 2 10.1552 4.31615 4.38109
128 2 1.77742 9.05706 6.89842
129 2 11.1688 2.99022 2.20097
130 2 5.87719 6.17021 1.03536
131 2 11.5738 7.82705 2.77113
132 2 3.40406 3.42942 4.24708
133 2 5.59791 12.0779 11.7531
134 2 7.50414 0.111926 3.30486
135 2 5.80674 9.42811 9.38534
136 2 5.06848 12.2914 1.58519
137 2 9.09128 11.1506 1.65991
138 2 11.1239 0.875428 9.30753
139 2 4.16782 7.74134 11.593
140 2 3.07683 2.43724 1.48143
141 2 10.9895 10.6905 5.07416
142 2 3.69646 6.71758 2.67742
143 2 10.915 10.0476 10.7318
144 2 10.6625 5.98499 4.52556
145 2 0.795059 4.25879 1.50015
146 2 1.17773 6.07543 3.98981
147 2 9.94899 8.54318 2.71732
148 2 9.05252 5.93455 10.7697
149 2 7.32454 3.9212 2.03863
150 2 3.60111 3.94246 9.42953
151 2 5.6217 5.68881 6.21844
152 2 3.06956 10.0848 4.04337
153 2 6.65725 4.18547 5.02403
154 2 11.7864 2.48716 11.7893
155 2 6.47324 7.44885 4.84053
156 2 6.60713 5.09235 9.77185
157 2 2.59761 6.86567 5.72013
158 2 9.91655 8.15271 6.40075
159 2 7.86467 5.00843 7.27841
160 2 4.89522 1.32272 11.2439
161 2 2.25486 11.6318 3.94723
162 2 1.72656 6.59471 9.58982
163 2 6.25522 9.07364 1.04196
164 2 11.2002 7.17059 11.0815
165 2 6.90973 3.42974 7.93577
166 2 7.50034 1.29075 9.48611
167 2 0.99831 2.60113 6.58169
168 2 9.55381 1.4339 5.2157
169 2 9.3332 2.47188 10.8339
170 2 1.83408 9.09077 0.383309
171 2 11.8722 4.06353 7.69579
172 2 11.8096 12.1301 1.09198
173 2 8.00195 2.23559 0.75817
174 2 8.64582 9.21887 8.01004
175 2 3.11592 11.5422 7.26462
176 2 7.82941 10.7863 4.33567
177 2 6.30991 8.16766 7.3299
178 2 7.93917 10.4791 10.7755
179 2 4.88556 1.1744 5.06769
180 2 2.57344 12.0677 1.23416
181 2 5.01705 11.5288 7.45184
182 2 9.5998 5.93818 0.432596
183 2 2.0324 12.0565 10.2198
184 2 5.70053 2.17898 3.72946
185 2 9.4505 7.50653 0.684124
186 2 11.1065 6.6676 8.40373
187 2 1.488 6.7258 11.5428
188 2 0.346402 9.49947 10.9754
189 2 10.0974 11.9643 7.26707
190 2 1.31069 2.72899 3.99605
191 2 9.40119 3.01802 3.85587
192 2 0.327346 9.56372 6.8543
