ITEM: TIMESTEP
0
ITEM: NUMBER OF ATOMS
192
ITEM: BOX BOUNDS xy xz yz pp pp pp
0.0000000000000000e+00 1.2444699999999999e+01 0.0000000000000000e+00
0.0000000000000000e+00 1.2444699999999999e+01 0.0000000000000000e+00
0.0000000000000000e+00 1.2444699999999999e+01 0.0000000000000000e+00
ITEM: ATOMS id type x y z
1 1 11.83 2.56 2.18
2 1 5.36 6 1.81
3 1 12.17 7.34 2.71
4 1 3.38 4.28 4.84
5 1 4.54 11.73 11.9
6 1 7.34 0.18 2.18
7 1 5.73 9.9 10.31
8 1 5.32 11.19 1.83
9 1 9.39 11.14 1.1
10 1 12.06 0.64 8.92
11 1 5.01 7.72 11.74
12 1 3.64 3.19 1.08
13 1 11.88 10.9 4.7
14 1 3.88 8.05 2.51
15 1 9.82 9.16 10.18
16 1 11 5.31 5.17
17 1 0.97 4.12 0.84
18 1 1.24 5.99 4.76
19 1 10.1 9.09 3.32
20 1 8.39 5.72 10.39
21 1 8.06 4.72 1.3
22 1 3.23 3.34 8.26
23 1 5.02 6.21 7.29
24 1 3.94 10.55 3.95
25 1 6.25 4.56 4.21
26 1 12.18 2.35 11.11
27 1 6.76 8.57 4.07
28 1 5.87 5.84 9.79
29 1 2.18 6.91 6.99
30 1 10.89 7.69 6.78
31 1 8.03 4.28 6.57
32 1 5.29 1.92 11.56
33 1 1.53 12.16 3.45
34 1 2.04 5.49 9.71
35 1 6.66 9.05 1.21
36 1 11.75 6.18 11.01
37 1 6.11 3.07 7.96
38 1 8.22 1.38 9.43
39 1 1.31 2.02 7.09
40 1 9.48 2.11 5.92
41 1 9.33 3.34 10.97
42 1 1.31 8.49 0.81
43 1 11.25 3.48 7.51
44 1 11.7 0.33 0.6
45 1 7.63 2.04 0.28
46 1 8.86 9.52 7.4
47 1 2.01 11.54 6.89
48 1 8.02 11.27 4.66
49 1 5.82 9.18 7.71
50 1 8.11 11.19 11.22
51 1 5.94 0.84 5.91
52 1 1.88 11.66 0.64
53 1 4.66 11.28 6.73
54 1 10.32 6.26 0.89
55 1 2.01 11.07 10.33
56 1 5.36 2.06 3.14
57 1 8.56 7.59 12.17
58 1 10.51 5.81 8.66
59 1 2.37 6.23 12.1
60 1 0.3 8.77 10.05
61 1 9.47 12.13 7.57
62 1 1.41 2.32 4.17
63 1 9.69 3.69 3.56
64 1 0.75 9.22 7.39
65 2 11.09 2.87 2.74
66 2 5.51 5.51 2.6
67 2 0.24 6.8 3.29
68 2 4.28 4.19 4.46
69 2 3.63 11.56 11.76
70 2 6.53 12.07 1.99
71 2 5.37 9.14 10.85
72 2 5.74 10.31 1.64
73 2 8.71 11.07 0.41
74 2 0.27 1.04 8.27
75 2 5.46 7.08 11.15
76 2 3.84 4.17 1.06
77 2 11.55 10.19 4.15
78 2 3 8.17 2.14
79 2 9.53 10.04 10.56
80 2 11.18 4.84 6.05
81 2 0.68 3.76 12.44
82 2 0.43 5.51 4.88
83 2 9.51 9.48 3.94
84 2 9.08 5.89 9.68
85 2 7.92 3.83 0.8
86 2 4.23 3.22 8.21
87 2 5.27 5.9 8.19
88 2 4.44 10.9 3.14
89 2 6.93 4.56 4.89
90 2 11.88 1.61 11.75
91 2 6.79 8.54 3.09
92 2 5.62 4.99 10.13
93 2 3.09 6.66 6.98
94 2 11.73 8.22 6.86
95 2 8.4 3.45 6.18
96 2 4.64 2.37 12.16
97 2 0.74 11.69 3.86
98 2 1.1 5.3 9.72
99 2 7.54 9.11 0.83
100 2 11.36 6.2 11.9
101 2 5.85 2.21 7.53
102 2 8.81 2.01 9.89
103 2 2.17 2.43 7.46
104 2 10.1 2.53 6.55
105 2 9.07 4.29 10.91
106 2 0.64 8.13 1.45
107 2 11.12 4.2 8.14
108 2 11.03 12.03 0.58
109 2 6.83 1.84 12.19
110 2 9.13 10.45 7.25
111 2 1.76 12.44 6.8
112 2 7.37 11.88 5.08
113 2 5.59 8.29 7.44
114 2 8.14 12.12 10.86
115 2 5.48 0.06 6.32
116 2 0.99 11.99 0.41
117 2 4.54 10.95 5.79
118 2 10.94 6.29 1.65
119 2 2.52 10.55 9.76
120 2 4.74 2.41 2.42
121 2 8.84 8.27 11.56
122 2 10.89 6.06 9.58
123 2 2.15 5.99 11.18
124 2 0.49 9.06 9.13
125 2 8.69 12.34 8.15
126 2 1.76 1.44 4.07
127 2 10.05 4.44 4.1
128 2 1.44 8.49 7.32
129 2 12.25 3.32 1.68
130 2 6.27 6.22 1.56
131 2 11.5 7.85 3.14
132 2 2.96 3.44 4.61
133 2 5.04 11.17 11.3
134 2 7.6 12.39 3.03
135 2 5.94 9.68 9.37
136 2 4.93 11.46 0.96
137 2 8.92 11.68 1.69
138 2 12.07 1.36 9.54
139 2 4.17 7.28 11.8
140 2 2.67 3.09 1.05
141 2 11.89 10.59 5.56
142 2 4.27 7.23 2.16
143 2 10.8 9.22 10.18
144 2 10.68 6.2 5.44
145 2 1.51 4.9 0.53
146 2 1.94 5.36 4.61
147 2 10.02 9.64 2.47
148 2 8.41 6.43 11.04
149 2 8.58 4.29 2.01
150 2 3.12 4.28 8.41
151 2 5.12 5.54 6.6
152 2 3.97 9.58 3.89
153 2 6.17 3.63 3.9
154 2 11.4 2.92 10.99
155 2 5.96 8.02 4.26
156 2 6.81 5.9 9.83
157 2 1.83 6.59 6.16
158 2 10.19 8.36 6.88
159 2 8.74 4.67 7.12
160 2 4.84 1.08 11.38
161 2 2.38 11.71 3.7
162 2 2.02 6.1 8.92
163 2 6.05 8.48 0.61
164 2 12.12 7.05 10.81
165 2 6.81 3.46 7.31
166 2 7.52 1.99 9.1
167 2 1.25 2.26 6.18
168 2 9.31 1.19 6.35
169 2 8.84 2.9 11.69
170 2 1.39 9.44 0.85
171 2 12.13 3.22 7.5
172 2 11.38 0.95 1.34
173 2 7.43 1.82 1.24
174 2 9.15 9.43 8.28
175 2 2.97 11.66 6.88
176 2 7.5 10.43 4.47
177 2 6.69 9.4 7.47
178 2 7.29 10.77 10.93
179 2 5.45 1.07 5.12
180 2 1.92 11.57 1.62
181 2 5.05 10.55 7.26
182 2 9.73 5.52 1.11
183 2 1.73 11.85 9.82
184 2 6.02 1.57 2.67
185 2 9.34 7.2 0.21
186 2 10.71 6.56 7.97
187 2 1.86 7.03 12.37
188 2 1.08 9.16 10.59
189 2 10.19 12.39 8.15
190 2 0.92 2.56 3.28
191 2 9.34 3.01 4.17
192 2 1.11 10.09 7.21
ITEM: TIMESTEP
100
ITEM: NUMBER OF ATOMS
192
ITEM: BOX BOUNDS xy xz yz pp pp pp
0.0000000000000000e+00 1.2444699999999999e+01 0.0000000000000000e+00
0.0000000000000000e+00 1.2444699999999999e+01 0.0000000000000000e+00
0.0000000000000000e+00 1.2444699999999999e+01 0.0000000000000000e+00
ITEM: ATOMS id type x y z
1 1 11.8548 2.27061 2.15063
2 1 5.27142 6.07575 1.76094
3 1 12.339 7.29498 2.70394
4 1 3.01917 4.15531 4.84807
5 1 4.68518 12.1615 11.5325
6 1 7.39003 0.053566 2.36052
7 1 5.28753 9.72956 10.1597
8 1 5.55698 11.45 1.78081
9 1 9.33561 11.0211 0.742392
10 1 12.0345 0.388541 9.25947
11 1 5.17993 7.97712 11.4888
12 1 3.5585 3.23083 1.2854
13 1 11.8722 10.7795 4.79139
14 1 3.65266 7.68469 2.80083
15 1 10.0317 9.6765 10.4616
16 1 10.8381 5.08774 4.8336
17 1 0.851373 3.77859 0.61306
18 1 1.24384 6.33354 4.88023
19 1 10.3549 9.08847 3.3683
20 1 8.16824 5.80601 10.4026
21 1 8.11451 4.27607 1.58645
22 1 3.0901 3.3392 8.89619
23 1 5.39257 6.3271 6.91702
24 1 3.88095 10.6083 3.98671
25 1 6.39023 4.86809 4.41139
26 1 12.2064 2.04503 11.0139
27 1 6.7123 8.25735 4.37262
28 1 5.86273 5.76584 10.054
29 1 2.21138 6.88135 6.61452
30 1 10.3601 7.53907 6.97705
31 1 7.73855 4.31084 6.64053
32 1 5.09663 2.18893 11.6877
33 1 1.50402 12.057 3.53257
34 1 2.19688 5.74335 9.79901
35 1 7.22472 9.05942 1.18438
36 1 11.5153 6.31249 11.3124
37 1 5.99611 3.15933 8.11323
38 1 8.42696 1.1149 9.25881
39 1 1.7213 1.98204 6.93178
40 1 9.56508 2.0423 5.90934
41 1 9.12034 3.3807 10.7035
42 1 1.2301 8.54654 0.870111
43 1 11.1681 3.49786 7.35686
44 1 11.8104 0.375782 0.458814
45 1 7.65448 2.04758 12.2919
46 1 8.7063 9.767 7.24497
47 1 2.27803 11.8037 6.72781
48 1 7.99446 11.4361 5.04986
49 1 5.74121 8.87247 7.61835
50 1 8.33541 11.1762 11.3278
51 1 5.60574 1.03844 5.64483
52 1 1.79701 11.5837 0.97815
53 1 4.54875 11.3695 6.64412
54 1 10.3813 6.55293 0.671014
55 1 2.01985 11.1223 10.4386
56 1 5.07356 2.27292 3.03812
57 1 8.8219 7.29124 12.3726
58 1 10.7147 5.69735 8.31163
59 1 2.34568 6.28939 11.8073
60 1 0.708714 9.06289 10.1752
61 1 9.15531 12.0799 7.53425
62 1 1.63346 2.06782 4.61186
63 1 9.84119 3.79814 3.53357
64 1 0.859649 8.8233 7.13203
65 2 11.4311 1.41643 2.32534
66 2 5.51882 5.34708 2.28573
67 2 0.536195 7.84865 3.14435
68 2 3.78096 4.77922 4.85093
69 2 4.31746 11.1925 11.4557
70 2 6.75199 11.7186 2.18572
71 2 5.05522 8.69875 10.4183
72 2 5.70265 10.9338 0.972539
73 2 8.50611 11.3776 0.350507
74 2 12.3536 0.714378 8.4279
75 2 5.57809 7.05581 11.4799
76 2 2.98979 3.60659 0.646037
77 2 11.7471 11.3601 4.00375
78 2 2.7837 7.91329 3.03814
79 2 9.63266 10.6371 10.4269
80 2 11.0865 5.12074 5.74976
81 2 0.347918 4.36583 0.0774413
82 2 1.34477 5.46978 5.33355
83 2 9.71454 9.23845 4.03636
84 2 7.95286 6.50394 9.76335
85 2 7.69533 4.66833 0.85007
86 2 2.88082 2.53166 9.40791
87 2 5.21461 5.87092 7.76421
88 2 4.32283 10.1874 3.25951
89 2 7.12885 5.47969 4.47668
90 2 0.490454 1.48038 11.3919
91 2 7.33737 8.02379 3.71586
92 2 5.31845 5.26497 10.6114
93 2 2.99869 6.98656 7.06199
94 2 11.2776 7.52684 6.6509
95 2 8.62066 3.87205 6.5665
96 2 4.62375 2.85601 11.2249
97 2 1.09 12.3159 4.38169
98 2 1.54866 5.08715 9.6961
99 2 7.66121 8.8509 0.319787
100 2 11.5508 6.42218 12.4007
101 2 5.83984 2.48076 7.39565
102 2 8.67565 1.78532 8.61992
103 2 1.85936 2.39726 7.78236
104 2 10.3376 1.75196 6.42542
105 2 9.31171 3.85718 11.5615
106 2 0.446744 9.06749 0.899618
107 2 10.3459 3.37933 7.85067
108 2 11.966 12.3435 12.0568
109 2 7.30458 1.20833 12.3136
110 2 8.90199 10.7191 7.44005
111 2 2.74734 12.3902 6.07716
112 2 7.12881 11.4475 5.61614
113 2 4.89971 8.66494 7.16388
114 2 8.06082 12.0574 10.9694
115 2 5.04526 0.663086 6.34925
116 2 1.47368 12.1221 0.236368
117 2 4.86126 10.5376 6.32883
118 2 10.7088 6.27809 1.49833
119 2 2.30753 10.6516 9.67162
120 2 5.13541 1.49085 2.4767
121 2 9.20268 7.84697 11.6542
122 2 11.1274 5.44148 9.16704
123 2 2.56954 5.64581 10.9965
124 2 0.615806 9.77805 9.56837
125 2 8.82699 0.300058 6.88204
126 2 2.35521 1.66919 4.17677
127 2 10.1539 4.3176 4.38082
128 2 1.77698 9.05511 6.89817
129 2 11.1697 2.98958 2.20163
130 2 5.87957 6.17646 1.03803
131 2 11.5736 7.82731 2.76997
132 2 3.40191 3.43168 4.24277
133 2 5.59881 12.0757 11.7509
134 2 7.50583 0.110754 3.30674
135 2 5.80345 9.4272 9.38264
136 2 5.06421 12.2893 1.58406
137 2 9.09655 11.1527 1.66118
138 2 11.1253 0.87852 9.30854
139 2 4.16789 7.73919 11.5944
140 2 3.07596 2.43733 1.48032
141 2 10.9898 10.6903 5.07549
142 2 3.69875 6.7184 2.67563
143 2 10.9152 10.0494 10.7321
144 2 10.6666 5.98563 4.52561
145 2 0.793562 4.26397 1.49662
146 2 1.17803 6.07449 3.98939
147 2 9.94852 8.54436 2.71759
148 2 9.05544 5.93465 10.7678
149 2 7.32361 3.921 2.03842
150 2 3.60196 3.9439 9.42873
151 2 5.62098 5.68752 6.21838
152 2 3.07022 10.0847 4.04614
153 2 6.65477 4.18504 5.02369
154 2 11.7817 2.48286 11.7894
155 2 6.47283 7.45009 4.84244
156 2 6.60496 5.09316 9.77001
157 2 2.60028 6.86646 5.72209
158 2 9.91643 8.1567 6.40496
159 2 7.8666 5.00733 7.27937
160 2 4.89453 1.32315 11.2426
161 2 2.25439 11.6322 3.94875
162 2 1.72754 6.59458 9.5892
163 2 6.25603 9.07833 1.04234
164 2 11.2024 7.17003 11.0785
165 2 6.91008 3.43015 7.93436
166 2 7.49925 1.29204 9.48695
167 2 0.999428 2.60166 6.58078
168 2 9.55192 1.43284 5.21647
169 2 9.33017 2.47141 10.8344
170 2 1.83381 9.0912 0.382998
171 2 11.8745 4.06097 7.69545
172 2 11.8121 12.1313 1.09258
173 2 8.00157 2.23437 0.758527
174 2 8.64982 9.21758 8.00903
175 2 3.11512 11.5426 7.26487
176 2 7.82668 10.7842 4.33736
177 2 6.31177 8.17006 7.32781
178 2 7.9387 10.4816 10.7713
179 2 4.88619 1.1736 5.06754
180 2 2.57229 12.0681 1.23487
181 2 5.01842 11.5277 7.45167
182 2 9.60278 5.93711 0.431454
183 2 2.03068 12.0569 10.2183
184 2 5.70141 2.17896 3.72867
185 2 9.44942 7.50569 0.684955
186 2 11.1057 6.66856 8.40569
187 2 1.48569 6.72209 11.5465
188 2 0.344931 9.49811 10.9756
189 2 10.0979 11.9644 7.26371
190 2 1.30951 2.72924 3.99674
191 2 9.40068 3.01803 3.85744
192 2 0.32808 9.56451 6.85323
