LAMMPS (29 Oct 2020)
  using 1 OpenMP thread(s) per MPI task
# bulk water

units           metal
boundary        p p p
atom_style      atomic

neighbor        2.0 bin
neigh_modify    every 50 delay 0 check no

read_data	    ../lmp/water.lmp
Reading data file ...
  triclinic box = (0.0000000 0.0000000 0.0000000) to (12.444700 12.444700 12.444700) with tilt (0.0000000 0.0000000 0.0000000)
  3 by 4 by 4 MPI processor grid
  reading atoms ...
  192 atoms
  read_data CPU = 0.044 seconds
mass 		    1 16
mass		    2 2

replicate       2 6 8 bbox
Replicating atoms ...
  triclinic box = (0.0000000 0.0000000 0.0000000) to (24.889400 74.668200 99.557600) with tilt (0.0000000 0.0000000 0.0000000)
  2 by 4 by 6 MPI processor grid
  bounding box image = (0 0 0) to (0 0 0)
  bounding box extra memory = 0.02 MB
  average # of replicas added to proc = 7.31 out of 96 (7.62%)
  18432 atoms
  replicate CPU = 0.031 seconds

pair_style	    deepmd ../model/graph-compress-preprocess.pb
Summary of lammps deepmd module ...
  >>> Info of deepmd-kit:
  installed to:       /home/hp200266/u01036/gzq/deepmd-kit/dp
  source:             v1.2.2-805-gf5300824-dirty
  source brach:       devel_
  source commit:      f5300824
  source commit at:   2021-07-31 21:09:22 +0900
  surpport model ver.:1.0 
  build float prec:   double
  build with tf inc:  /home/hp200266/u01036/gzq/fj_software/tensorflow/TensorFlow-2.2.0/include;/home/hp200266/u01036/gzq/fj_software/tensorflow/TensorFlow-2.2.0/include
  build with tf lib:  /home/hp200266/u01036/gzq/fj_software/tensorflow/TensorFlow-2.2.0/lib/libtensorflow_cc.so;/home/hp200266/u01036/gzq/fj_software/tensorflow/TensorFlow-2.2.0/lib/libtensorflow_framework.so
  set tf intra_op_parallelism_threads: 1
  set tf inter_op_parallelism_threads: -1
  >>> Info of lammps module:
  use deepmd-kit at:  /home/hp200266/u01036/gzq/deepmd-kit/dp
  source:             v1.2.2-782-g23a7854b-dirty
  source branch:      devel_
  source commit:      23a7854b
  source commit at:   2021-07-26 14:56:07 +0900
  build float prec:   double
  build with tf inc:  /home/hp200266/u01036/gzq/fj_software/tensorflow/TensorFlow-2.2.0/include;/home/hp200266/u01036/gzq/fj_software/tensorflow/TensorFlow-2.2.0/include
  build with tf lib:  /home/hp200266/u01036/gzq/fj_software/tensorflow/TensorFlow-2.2.0/lib/libtensorflow_cc.so;/home/hp200266/u01036/gzq/fj_software/tensorflow/TensorFlow-2.2.0/lib/libtensorflow_framework.so
  >>> Info of model(s):
  using   1 model(s): ../model/graph-compress-preprocess.pb 
  rcut in model:      6
  ntypes in model:    2
pair_coeff

velocity        all create 330.0 23456789

fix             1 all nvt temp 330.0 330.0 0.5
timestep        0.0005
thermo_style    custom step pe ke etotal temp press vol
thermo          20
# dump		    1 all custom 100 water.dump id type x y z

run             99
Neighbor list info ...
  update every 50 steps, delay 0 steps, check no
  max neighbors/atom: 2000, page size: 100000
  master list distance cutoff = 8
  ghost atom cutoff = 8
  binsize = 4, bins = 7 19 25
  1 neighbor lists, perpetual/occasional/extra = 1 0 0
  (1) pair deepmd, perpetual
      attributes: , newton on
      pair build: full/bin/atomonly
      stencil: full/bin/3d
      bin: standard
Setting up Verlet run ...
  Unit style    : metal
  Current step  : 0
  Time step     : 0.0005
Per MPI rank memory allocation (min/avg/max) = 2.671 | 2.675 | 2.677 Mbytes
Step PotEng KinEng TotEng Temp Press Volume 
       0   -2874661.7    786.18993   -2873875.5          330    127938.88    185022.49 
      20   -2873126.5    1032.9651   -2872093.6    433.58287    178024.47    185022.49 
      40   -2871708.1      1395.72   -2870312.4    585.84776    158596.67    185022.49 
      60   -2866818.5    2913.6742   -2863904.8    1223.0028    149141.61    185022.49 
      80   -2862490.8    5020.0308   -2857470.8    2107.1373    187175.16    185022.49 
      99   -2860636.9    7160.5384   -2853476.4    3005.6066    174000.87    185022.49 
Loop time of 12.5996 on 48 procs for 99 steps with 18432 atoms

Performance: 0.339 ns/day, 70.705 hours/ns, 7.857 timesteps/s
99.9% CPU use with 48 MPI tasks x 1 OpenMP threads

MPI task timing breakdown:
Section |  min time  |  avg time  |  max time  |%varavg| %total
---------------------------------------------------------------
Pair    | 11.666     | 12.161     | 12.536     |   6.4 | 96.51
Neigh   | 0.0057449  | 0.0060475  | 0.0063037  |   0.2 |  0.05
Comm    | 0.016083   | 0.39435    | 0.92226    |  36.5 |  3.13
Output  | 0.00027134 | 0.00028667 | 0.00032226 |   0.0 |  0.00
Modify  | 0.0039661  | 0.037448   | 0.079511   |  11.6 |  0.30
Other   |            | 0.000981   |            |       |  0.01

Nlocal:        384.000 ave         399 max         367 min
Histogram: 1 0 8 8 6 5 9 5 3 3
Nghost:        2826.02 ave        2892 max        2765 min
Histogram: 3 6 9 6 2 5 2 7 0 8
Neighs:        0.00000 ave           0 max           0 min
Histogram: 48 0 0 0 0 0 0 0 0 0

Total # of neighbors = 0
Ave neighs/atom = 0.0000000
Neighbor list builds = 1
Dangerous builds not checked

Please see the log.cite file for references relevant to this simulation

Total wall time: 0:00:20
