LAMMPS (29 Oct 2020)
units           metal
boundary        p p p
atom_style      atomic

neighbor        2.0 bin
neigh_modify    every 50 delay 0 check no

lattice       	fcc 3.6342
Lattice spacing in x,y,z = 3.6342000 3.6342000 3.6342000
# region        	box block 0 3 0 3 0 3
# create_box    	1 box
Created orthogonal box = (0.0000000 0.0000000 0.0000000) to (10.902600 10.902600 10.902600)
  1 by 1 by 1 MPI processor grid
# create_atoms    1 box
Created 108 atoms
  create_atoms CPU = 0.000 seconds
#read_data	copper.lmp
mass		1 63.546

#replicate     	4 4 4
pair_style	deepmd copper-baseline.pb
pair_coeff

velocity        all create 330.0 23456789

fix             1 all nvt temp 330.0 330.0 0.5
timestep        0.0005
thermo_style    custom step pe ke etotal temp press vol
thermo          1


run             10000
Neighbor list info ...
  update every 50 steps, delay 0 steps, check no
  max neighbors/atom: 2000, page size: 100000
  master list distance cutoff = 10
  ghost atom cutoff = 10
  binsize = 5, bins = 3 3 3
  1 neighbor lists, perpetual/occasional/extra = 1 0 0
  (1) pair deepmd, perpetual
      attributes: , newton on
      pair build: full/bin/atomonly
      stencil: full/bin/3d
      bin: standard
Per MPI rank memory allocation (min/avg/max) = 2.680 | 2.680 | 2.680 Mbytes
Step PotEng KinEng TotEng Temp Press Volume 
       0    -402.5609    4.5641757   -397.99672          330    4374.8492    1295.9559 
       1    -402.5598    4.5630736   -397.99672    329.92031    4378.9767    1295.9559 
       2   -402.55649    4.5597689   -397.99672    329.68138    4391.3521    1295.9559 
       3   -402.55099    4.5542668   -397.99672    329.28356     4411.958    1295.9559 
       4    -402.5433    4.5465745   -397.99672     328.7274    4440.7674    1295.9559 
       5   -402.53342    4.5367022   -397.99672     328.0136    4477.7443    1295.9559 
       6   -402.52138     4.524662   -397.99672    327.14307    4522.8432    1295.9559 
       7   -402.50719    4.5104689   -397.99672    326.11688    4576.0093    1295.9559 
       8   -402.49086      4.49414   -397.99672    324.93626    4637.1783    1295.9559 
       9   -402.47241    4.4756949   -397.99672    323.60264    4706.2766    1295.9559 
      10   -402.45187    4.4551558   -397.99671    322.11762    4783.2212    1295.9559 
      11   -402.42926    4.4325469   -397.99671    320.48295    4867.9195    1295.9559 
      12    -402.4046    4.4078952   -397.99671    318.70057    4960.2695    1295.9559 
      13   -402.37794    4.3812295   -397.99671    316.77258    5060.1597    1295.9559 
      14   -402.34928    4.3525813    -397.9967    314.70126    5167.4692    1295.9559 
      15   -402.31868    4.3219844    -397.9967    312.48903    5282.0676    1295.9559 
      16   -402.28617    4.2894744   -397.99669    310.13849    5403.8151    1295.9559 
      17   -402.25178    4.2550897   -397.99669     307.6524    5532.5626    1295.9559 
      18   -402.21555    4.2188706   -397.99668    305.03367    5668.1518    1295.9559 
      19   -402.17753    4.1808594   -397.99667    302.28538    5810.4152    1295.9559 
      20   -402.13777    4.1411008   -397.99667    299.41075    5959.1763    1295.9559 
      21    -402.0963    4.0996414   -397.99666    296.41314    6114.2499    1295.9559 
      22   -402.05318    4.0565299   -397.99665    293.29608    6275.4418    1295.9559 
      23   -402.00845     4.011817   -397.99664    290.06324    6442.5498    1295.9559 
      24   -401.96218    3.9655552   -397.99663    286.71841    6615.3633    1295.9559 
      25   -401.91441    3.9177991   -397.99661    283.26554    6793.6637    1295.9559 
      26   -401.86521     3.868605    -397.9966     279.7087    6977.2248    1295.9559 
      27   -401.81462     3.818031   -397.99659    276.05209     7165.813    1295.9559 
      28   -401.76271    3.7661368   -397.99657    272.30002    7359.1879    1295.9559 
      29   -401.70954     3.712984   -397.99655    268.45695    7557.1022    1295.9559 
      30   -401.65517    3.6586354   -397.99653    264.52744    7759.3023    1295.9559 
      31   -401.59967    3.6031558   -397.99651    260.51613     7965.529    1295.9559 
      32    -401.5431     3.546611   -397.99649    256.42782    8175.5176    1295.9559 
      33   -401.48554    3.4890683   -397.99647    252.26736    8388.9983    1295.9559 
      34   -401.42704    3.4305964   -397.99645    248.03971    8605.6963    1295.9559 
      35   -401.36769     3.371265   -397.99642    243.74992    8825.3326    1295.9559 
      36   -401.30754    3.3111451   -397.99639    239.40312    9047.6241    1295.9559 
      37   -401.24668    3.2503086   -397.99637     235.0045    9272.2848    1295.9559 
      38   -401.18517    3.1888282   -397.99634    230.55933    9499.0261    1295.9559 
      39   -401.12308    3.1267777   -397.99631    226.07294    9727.5565    1295.9559 
      40    -401.0605    3.0642314   -397.99627    221.55071    9957.5829    1295.9559 
      41    -400.9975    3.0012644   -397.99624    216.99806    10188.811    1295.9559 
      42   -400.93416    2.9379523    -397.9962    212.42045    10420.944    1295.9559 
      43   -400.87054    2.8743709   -397.99617    207.82337    10653.688    1295.9559 
      44   -400.80672    2.8105965   -397.99613    203.21234    10886.745    1295.9559 
      45   -400.74279    2.7467056   -397.99609    198.59289     11119.82    1295.9559 
      46   -400.67882    2.6827748   -397.99605    193.97055    11352.617    1295.9559 
      47   -400.61489    2.6188806   -397.99601    189.35086    11584.841    1295.9559 
      48   -400.55106    2.5550993   -397.99596    184.73933      11816.2    1295.9559 
      49   -400.48742    2.4915071   -397.99592    180.14147    12046.403    1295.9559 
      50   -400.42405    2.4281797   -397.99587    175.56276    12275.164    1295.9559 
      51   -400.36102    2.3651922   -397.99582    171.00863    12502.196    1295.9559 
      52   -400.29839    2.3026194   -397.99577    166.48448    12727.219    1295.9559 
      53   -400.23626    2.2405351   -397.99573    161.99565    12949.957    1295.9559 
      54   -400.17469    2.1790123   -397.99567    157.54741    13170.135    1295.9559 
      55   -400.11375     2.118123   -397.99562    153.14498    13387.487    1295.9559 
      56   -400.05351    2.0579381   -397.99557    148.79348     13601.75    1295.9559 
      57   -399.99405    1.9985274   -397.99552    144.49795    13812.667    1295.9559 
      58   -399.93542    1.9399592   -397.99546    140.26334    14019.987    1295.9559 
      59   -399.87771    1.8823003   -397.99541    136.09448    14223.466    1295.9559 
      60   -399.82097    1.8256162   -397.99536    131.99609    14422.866    1295.9559 
      61   -399.76527    1.7699706    -397.9953    127.97279    14617.958    1295.9559 
      62   -399.71067    1.7154252   -397.99524    124.02903    14808.519    1295.9559 
      63   -399.65723    1.6620401   -397.99519    120.16917    14994.335    1295.9559 
      64     -399.605    1.6098732   -397.99513     116.3974    15175.198    1295.9559 
      65   -399.55406    1.5589805   -397.99507    112.71774    15350.912    1295.9559 
      66   -399.50443    1.5094157   -397.99502     109.1341    15521.287    1295.9559 
      67   -399.45619    1.4612302   -397.99496    105.65017    15686.142    1295.9559 
      68   -399.40938     1.414473    -397.9949    102.26953    15845.309    1295.9559 
      69   -399.36404    1.3691907   -397.99485    98.995519    15998.626    1295.9559 
      70   -399.32022    1.3254275   -397.99479     95.83134    16145.943    1295.9559 
      71   -399.27796    1.2832248   -397.99473     92.77999    16287.118    1295.9559 
      72    -399.2373    1.2426214   -397.99468    89.844275    16422.021    1295.9559 
      73   -399.19827    1.2036534   -397.99462    87.026804    16550.532    1295.9559 
      74   -399.16092    1.1663542   -397.99456    84.329986    16672.542    1295.9559 
      75   -399.12526    1.1307542    -397.9945    81.756027    16787.953    1295.9559 
      76   -399.09133     1.096881   -397.99445    79.306923    16896.676    1295.9559 
      77   -399.05915    1.0647595   -397.99439    76.984464    16998.636    1295.9559 
      78   -399.02875    1.0344113   -397.99434    74.790224    17093.766    1295.9559 
      79   -399.00014    1.0058554   -397.99428    72.725568    17182.012    1295.9559 
      80   -398.97333   0.97910755   -397.99422    70.791642     17263.33    1295.9559 
      81   -398.94835   0.95418077   -397.99417     68.98938    17337.687    1295.9559 
      82    -398.9252   0.93108495   -397.99411    67.319501    17405.063    1295.9559 
      83   -398.90388   0.90982705   -397.99406    65.782508    17465.447    1295.9559 
      84   -398.88441   0.89041109     -397.994    64.378691     17518.84    1295.9559 
      85   -398.86678   0.87283812   -397.99395    63.108127    17565.252    1295.9559 
      86     -398.851   0.85710631   -397.99389    61.970682    17604.707    1295.9559 
      87   -398.83704   0.84321091   -397.99383    60.966014    17637.236    1295.9559 
      88   -398.82492   0.83114436   -397.99378    60.093576    17662.884    1295.9559 
      89   -398.81462   0.82089629   -397.99372    59.352617    17681.703    1295.9559 
      90   -398.80612   0.81245355   -397.99366    58.742189    17693.757    1295.9559 
      91    -398.7994   0.80580035    -397.9936    58.261147    17699.121    1295.9559 
      92   -398.79446   0.80091821   -397.99355    57.908158    17697.877    1295.9559 
      93   -398.79127   0.79778611   -397.99349    57.681701    17690.118    1295.9559 
      94   -398.78981   0.79638055   -397.99342    57.580075    17675.946    1295.9559 
      95   -398.79004   0.79667556   -397.99336    57.601405    17655.471    1295.9559 
      96   -398.79194   0.79864288    -397.9933    57.743647    17628.813    1295.9559 
      97   -398.79549   0.80225196   -397.99324    58.004591    17596.099    1295.9559 
      98   -398.80064    0.8074701   -397.99317    58.381874    17557.466    1295.9559 
      99   -398.80736   0.81426251    -397.9931    58.872981    17513.057    1295.9559 
     100   -398.81562   0.82259244   -397.99303    59.475253    17463.021    1295.9559 
     101   -398.82538   0.83242123   -397.99296    60.185896    17407.518    1295.9559 
     102   -398.83659   0.84370845   -397.99289    61.001987    17346.711    1295.9559 
     103   -398.84922     0.856412   -397.99281    61.920482     17280.77    1295.9559 
     104   -398.86322   0.87048818   -397.99273    62.938221    17209.873    1295.9559 
     105   -398.87854   0.88589183   -397.99265    64.051939      17134.2    1295.9559 
     106   -398.89514   0.90257644   -397.99256    65.258273    17053.938    1295.9559 
     107   -398.91297   0.92049421   -397.99248    66.553767    16969.279    1295.9559 
     108   -398.93198   0.93959623   -397.99239    67.934886    16880.419    1295.9559 
     109   -398.95212   0.95983253   -397.99229    69.398015    16787.557    1295.9559 
     110   -398.97334   0.98115222   -397.99219    70.939476    16690.897    1295.9559 
     111   -398.99559    1.0035036   -397.99209    72.555528    16590.644    1295.9559 
     112   -399.01882    1.0268342   -397.99198    74.242381    16487.008    1295.9559 
     113   -399.04297     1.051091   -397.99187    75.996201      16380.2    1295.9559 
     114   -399.06798    1.0762204   -397.99176    77.813116    16270.433    1295.9559 
     115   -399.09381    1.1021686   -397.99164    79.689228    16157.922    1295.9559 
     116    -399.1204    1.1288813   -397.99152    81.620614    16042.883    1295.9559 
     117   -399.14769    1.1563041   -397.99139    83.603342    15925.531    1295.9559 
     118   -399.17564    1.1843824   -397.99126    85.633469    15806.085    1295.9559 
     119   -399.20418    1.2130619   -397.99112    87.707056    15684.759    1295.9559 
     120   -399.23326     1.242288   -397.99097    89.820169    15561.772    1295.9559 
     121   -399.26283    1.2720066   -397.99083    91.968887    15437.338    1295.9559 
     122   -399.29283    1.3021637   -397.99067    94.149313    15311.673    1295.9559 
     123   -399.32322    1.3327058   -397.99051    96.357575    15184.988    1295.9559 
     124   -399.35392    1.3635798   -397.99034    98.589833    15057.496    1295.9559 
     125   -399.38491    1.3947331   -397.99017    100.84229    14929.405    1295.9559 
     126   -399.41611    1.4261138      -397.99    103.11118    14800.922    1295.9559 
     127   -399.44748    1.4576706   -397.98981    105.39281     14672.25    1295.9559 
     128   -399.47897    1.4893531   -397.98962    107.68352     14543.59    1295.9559 
     129   -399.51054    1.5211116   -397.98942    109.97973     14415.14    1295.9559 
     130   -399.54212    1.5528973   -397.98922    112.27791    14287.094    1295.9559 
     131   -399.57368    1.5846625   -397.98901    114.57461    14159.642    1295.9559 
     132   -399.60516    1.6163605    -397.9888    116.86644    14032.968    1295.9559 
     133   -399.63652    1.6479454   -397.98858     119.1501    13907.255    1295.9559 
     134   -399.66772    1.6793729   -397.98835    121.42237     13782.68    1295.9559 
     135   -399.69871    1.7105995   -397.98811    123.68013    13659.415    1295.9559 
     136   -399.72945    1.7415831   -397.98787    125.92031    13537.627    1295.9559 
     137    -399.7599     1.772283   -397.98762    128.13998    13417.477    1295.9559 
     138   -399.79003    1.8026596   -397.98737    130.33627    13299.123    1295.9559 
     139   -399.81978    1.8326747    -397.9871    132.50643    13182.715    1295.9559 
     140   -399.84913    1.8622916   -397.98684     134.6478    13068.398    1295.9559 
     141   -399.87804    1.8914749   -397.98656    136.75782    12956.313    1295.9559 
     142   -399.90647    1.9201909   -397.98628    138.83405    12846.593    1295.9559 
     143    -399.9344     1.948407   -397.98599    140.87413    12739.364    1295.9559 
     144   -399.96179    1.9760924    -397.9857    142.87585    12634.749    1295.9559 
     145   -399.98861    2.0032178   -397.98539    144.83708    12532.861    1295.9559 
     146   -400.01484    2.0297553   -397.98509     146.7558    12433.809    1295.9559 
     147   -400.04045    2.0556787   -397.98477    148.63012    12337.696    1295.9559 
     148   -400.06541    2.0809634   -397.98445    150.45825    12244.615    1295.9559 
     149   -400.08971    2.1055861   -397.98412    152.23853    12154.655    1295.9559 
     150   -400.11332    2.1295254   -397.98379     153.9694    12067.899    1295.9559 
     151   -400.13621    2.1527614   -397.98345    155.64941    11984.422    1295.9559 
     152   -400.15838    2.1752757   -397.98311    157.27725    11904.292    1295.9559 
     153   -400.17981    2.1970517   -397.98276     158.8517    11827.572    1295.9559 
     154   -400.20047    2.2180742    -397.9824    160.37167    11754.315    1295.9559 
     155   -400.22037    2.2383296   -397.98204    161.83618     11684.57    1295.9559 
     156   -400.23947    2.2578061   -397.98167    163.24437    11618.378    1295.9559 
     157   -400.25779    2.2764931   -397.98129    164.59549    11555.774    1295.9559 
     158    -400.2753     2.294382   -397.98091    165.88889    11496.786    1295.9559 
     159   -400.29199    2.3114653   -397.98053    167.12406    11441.434    1295.9559 
     160   -400.30788    2.3277375   -397.98014    168.30057    11389.734    1295.9559 
     161   -400.32294    2.3431941   -397.97974    169.41812    11341.692    1295.9559 
     162   -400.33718    2.3578326   -397.97934    170.47651    11297.312    1295.9559 
     163   -400.35059    2.3716517   -397.97894    171.47566    11256.587    1295.9559 
     164   -400.36318    2.3846514   -397.97853    172.41557    11219.507    1295.9559 
     165   -400.37495    2.3968336   -397.97811    173.29637    11186.053    1295.9559 
     166    -400.3859    2.4082012    -397.9777    174.11827    11156.203    1295.9559 
     167   -400.39603    2.4187586   -397.97727     174.8816    11129.927    1295.9559 
     168   -400.40536    2.4285116   -397.97685    175.58676    11107.188    1295.9559 
     169   -400.41388    2.4374672   -397.97642    176.23427    11087.946    1295.9559 
     170   -400.42161    2.4456339   -397.97598    176.82474    11072.155    1295.9559 
     171   -400.42856    2.4530212   -397.97554    177.35886    11059.762    1295.9559 
     172   -400.43474    2.4596399    -397.9751    177.83741    11050.709    1295.9559 
     173   -400.44016    2.4655021   -397.97465    178.26126    11044.934    1295.9559 
     174   -400.44483     2.470621    -397.9742    178.63136    11042.369    1295.9559 
     175   -400.44876    2.4750107   -397.97375    178.94875    11042.943    1295.9559 
     176   -400.45198    2.4786867    -397.9733    179.21453    11046.579    1295.9559 
     177    -400.4545    2.4816653   -397.97284    179.42989    11053.196    1295.9559 
     178   -400.45634    2.4839638   -397.97238    179.59608    11062.708    1295.9559 
     179   -400.45751    2.4856006   -397.97191    179.71442    11075.027    1295.9559 
     180   -400.45804    2.4865947   -397.97145     179.7863    11090.059    1295.9559 
     181   -400.45794    2.4869663   -397.97098    179.81316    11107.709    1295.9559 
     182   -400.45724    2.4867362   -397.97051    179.79653    11127.877    1295.9559 
     183   -400.45596     2.485926   -397.97003    179.73795     11150.46    1295.9559 
     184   -400.45412    2.4845581   -397.96956    179.63905    11175.353    1295.9559 
     185   -400.45174    2.4826555   -397.96908    179.50148    11202.449    1295.9559 
     186   -400.44884    2.4802417    -397.9686    179.32696    11231.636    1295.9559 
     187   -400.44546     2.477341   -397.96812    179.11723    11262.802    1295.9559 
     188   -400.44161    2.4739781   -397.96764    178.87409    11295.831    1295.9559 
     189   -400.43733    2.4701782   -397.96715    178.59935    11330.608    1295.9559 
     190   -400.43263    2.4659669   -397.96667    178.29486    11367.014    1295.9559 
     191   -400.42755    2.4613703   -397.96618    177.96251     11404.93    1295.9559 
     192    -400.4221    2.4564145   -397.96569     177.6042    11444.235    1295.9559 
     193   -400.41632    2.4511263    -397.9652    177.22186    11484.808    1295.9559 
     194   -400.41024    2.4455325   -397.96471    176.81741    11526.526    1295.9559 
     195   -400.40387      2.43966   -397.96421    176.39281    11569.268    1295.9559 
     196   -400.39726    2.4335359   -397.96372    175.95003    11612.911    1295.9559 
     197   -400.39041    2.4271874   -397.96323    175.49102    11657.331    1295.9559 
     198   -400.38337    2.4206417   -397.96273    175.01775    11702.407    1295.9559 
     199   -400.37616     2.413926   -397.96223    174.53219    11748.015    1295.9559 
     200    -400.3688    2.4070674   -397.96174     174.0363    11794.034    1295.9559 
     201   -400.36133    2.4000928   -397.96124    173.53202    11840.343    1295.9559 
     202   -400.35377     2.393029   -397.96074    173.02129    11886.823    1295.9559 
     203   -400.34614    2.3859025   -397.96024    172.50603    11933.355    1295.9559 
     204   -400.33848    2.3787397   -397.95974    171.98814    11979.822    1295.9559 
     205   -400.33081    2.3715664   -397.95924     171.4695    12026.109    1295.9559 
     206   -400.32315    2.3644082   -397.95874    170.95195    12072.103    1295.9559 
     207   -400.31553    2.3572904   -397.95823    170.43731    12117.691    1295.9559 
     208   -400.30797    2.3502376   -397.95773    169.92738    12162.766    1295.9559 
     209    -400.3005     2.343274   -397.95723    169.42389    12207.219    1295.9559 
     210   -400.29315    2.3364232   -397.95672    168.92857    12250.946    1295.9559 
     211   -400.28593    2.3297084   -397.95622    168.44307    12293.846    1295.9559 
     212   -400.27886    2.3231519   -397.95571    167.96902     12335.82    1295.9559 
     213   -400.27198    2.3167755    -397.9552      167.508    12376.771    1295.9559 
     214    -400.2653    2.3106003    -397.9547    167.06152    12416.608    1295.9559 
     215   -400.25883    2.3046466   -397.95419    166.63105    12455.241    1295.9559 
     216   -400.25261    2.2989339   -397.95368    166.21801    12492.585    1295.9559 
     217   -400.24665     2.293481   -397.95317    165.82375    12528.557    1295.9559 
     218   -400.24096    2.2883057   -397.95265    165.44956     12563.08    1295.9559 
     219   -400.23557     2.283425   -397.95214    165.09668    12596.079    1295.9559 
     220   -400.23048     2.278855   -397.95163    164.76626    12627.484    1295.9559 
     221   -400.22572    2.2746109   -397.95111     164.4594    12657.228    1295.9559 
     222    -400.2213    2.2707069    -397.9506    164.17713     12685.25    1295.9559 
     223   -400.21723    2.2671563   -397.95008    163.92041    12711.491    1295.9559 
     224   -400.21353    2.2639712   -397.94956    163.69013      12735.9    1295.9559 
     225    -400.2102    2.2611629   -397.94904    163.48708    12758.426    1295.9559 
     226   -400.20726    2.2587417   -397.94852    163.31202    12779.026    1295.9559 
     227   -400.20471    2.2567165   -397.94799    163.16559     12797.66    1295.9559 
     228   -400.20256    2.2550955   -397.94747    163.04839    12814.293    1295.9559 
     229   -400.20082    2.2538856   -397.94694    162.96092    12828.896    1295.9559 
     230    -400.1995    2.2530928   -397.94641    162.90359    12841.442    1295.9559 
     231    -400.1986    2.2527219   -397.94588    162.87678    12851.912    1295.9559 
     232   -400.19812    2.2527766   -397.94534    162.88073     12860.29    1295.9559 
     233   -400.19807    2.2532594   -397.94481    162.91564    12866.565    1295.9559 
     234   -400.19844     2.254172   -397.94427    162.98162     12870.73    1295.9559 
     235   -400.19924    2.2555147   -397.94373     163.0787    12872.785    1295.9559 
     236   -400.20047    2.2572868   -397.94319    163.20683    12872.733    1295.9559 
     237   -400.20213    2.2594866   -397.94264    163.36588    12870.584    1295.9559 
     238    -400.2042    2.2621112   -397.94209    163.55564     12866.35    1295.9559 
     239    -400.2067    2.2651567   -397.94154    163.77584    12860.049    1295.9559 
     240    -400.2096    2.2686181   -397.94099    164.02611    12851.704    1295.9559 
     241   -400.21292    2.2724895   -397.94043    164.30601    12841.342    1295.9559 
     242   -400.21663    2.2767636   -397.93987    164.61505    12828.995    1295.9559 
     243   -400.22074    2.2814326   -397.93931    164.95262      12814.7    1295.9559 
     244   -400.22523    2.2864873   -397.93874    165.31809    12798.496    1295.9559 
     245   -400.23009    2.2919178   -397.93817    165.71072     12780.43    1295.9559 
     246   -400.23531     2.297713   -397.93759    166.12973     12760.55    1295.9559 
     247   -400.24088    2.3038612   -397.93702    166.57426    12738.909    1295.9559 
     248   -400.24678    2.3103496   -397.93643    167.04339    12715.564    1295.9559 
     249   -400.25301    2.3171646   -397.93585    167.53613    12690.576    1295.9559 
     250   -400.25955    2.3242918   -397.93526    168.05144     12664.01    1295.9559 
     251   -400.26638     2.331716   -397.93467    168.58823    12635.933    1295.9559 
     252   -400.27349    2.3394212   -397.93407    169.14533    12606.416    1295.9559 
     253   -400.28086    2.3473908   -397.93347    169.72155    12575.536    1295.9559 
     254   -400.28847    2.3556073   -397.93286    170.31562    12543.367    1295.9559 
     255   -400.29631    2.3640528   -397.93225    170.92625    12509.992    1295.9559 
     256   -400.30435    2.3727088   -397.93164    171.55209    12475.494    1295.9559 
     257   -400.31258    2.3815559   -397.93102    172.19176    12439.957    1295.9559 
     258   -400.32097    2.3905747    -397.9304    172.84383     12403.47    1295.9559 
     259   -400.32952    2.3997448   -397.92977    173.50686    12366.122    1295.9559 
     260   -400.33818    2.4090458   -397.92914    174.17934    12328.006    1295.9559 
     261   -400.34696    2.4184566    -397.9285    174.85976    12289.214    1295.9559 
     262   -400.35582    2.4279561   -397.92786    175.54659    12249.842    1295.9559 
     263   -400.36474    2.4375225   -397.92722    176.23827    12209.986    1295.9559 
     264    -400.3737    2.4471341   -397.92656    176.93321    12169.743    1295.9559 
     265   -400.38268    2.4567689   -397.92591    177.62983    12129.212    1295.9559 
     266   -400.39165    2.4664046   -397.92525    178.32651    12088.492    1295.9559 
     267    -400.4006     2.476019   -397.92459    179.02165    12047.681    1295.9559 
     268   -400.40951    2.4855897   -397.92392    179.71363    12006.881    1295.9559 
     269   -400.41834    2.4950943   -397.92324    180.40084     11966.19    1295.9559 
     270   -400.42707    2.5045107   -397.92256    181.08166    11925.709    1295.9559 
     271    -400.4357    2.5138165   -397.92188    181.75449    11885.538    1295.9559 
     272   -400.44418    2.5229896   -397.92119    182.41773    11845.774    1295.9559 
     273   -400.45251    2.5320082    -397.9205    183.06979    11806.517    1295.9559 
     274   -400.46065    2.5408505    -397.9198    183.70911    11767.864    1295.9559 
     275    -400.4686    2.5494952    -397.9191    184.33414    11729.912    1295.9559 
     276   -400.47632    2.5579211    -397.9184    184.94336    11692.756    1295.9559 
     277   -400.48379    2.5661075   -397.91769    185.53525    11656.489    1295.9559 
     278   -400.49101    2.5740341   -397.91697    186.10836    11621.204    1295.9559 
     279   -400.49793    2.5816809   -397.91625    186.66124    11586.991    1295.9559 
     280   -400.50456    2.5890286   -397.91553     187.1925    11553.938    1295.9559 
     281   -400.51086    2.5960582    -397.9148    187.70075    11522.131    1295.9559 
     282   -400.51682    2.6027515   -397.91407    188.18469    11491.655    1295.9559 
     283   -400.52243    2.6090907   -397.91334    188.64303    11462.591    1295.9559 
     284   -400.52766    2.6150587    -397.9126    189.07453    11435.017    1295.9559 
     285    -400.5325    2.6206391   -397.91186      189.478    11409.011    1295.9559 
     286   -400.53693    2.6258162   -397.91111    189.85232    11384.644    1295.9559 
     287   -400.54094    2.6305749   -397.91036    190.19639    11361.988    1295.9559 
     288   -400.54451    2.6349012   -397.90961    190.50918     11341.11    1295.9559 
     289   -400.54764    2.6387815   -397.90885    190.78974    11322.074    1295.9559 
     290    -400.5503    2.6422033    -397.9081    191.03715    11304.939    1295.9559 
     291   -400.55249    2.6451549   -397.90733    191.25055    11289.764    1295.9559 
     292   -400.55419    2.6476252   -397.90657    191.42916      11276.6    1295.9559 
     293   -400.55541    2.6496044    -397.9058    191.57226    11265.498    1295.9559 
     294   -400.55612    2.6510834   -397.90503    191.67919    11256.504    1295.9559 
     295   -400.55632     2.652054   -397.90426    191.74937    11249.658    1295.9559 
     296     -400.556     2.652509   -397.90349    191.78227        11245    1295.9559 
     297   -400.55515    2.6524422   -397.90271    191.77744    11242.561    1295.9559 
     298   -400.55378    2.6518483   -397.90193     191.7345    11242.372    1295.9559 
     299   -400.55188    2.6507231   -397.90115    191.65314    11244.457    1295.9559 
     300   -400.54944    2.6490632   -397.90037    191.53313    11248.838    1295.9559 
     301   -400.54646    2.6468664   -397.89959     191.3743    11255.531    1295.9559 
     302   -400.54294    2.6441315   -397.89881    191.17656    11264.547    1295.9559 
     303   -400.53888    2.6408581   -397.89802    190.93989    11275.894    1295.9559 
     304   -400.53428    2.6370472   -397.89724    190.66434    11289.576    1295.9559 
     305   -400.52915    2.6327004   -397.89645    190.35006    11305.589    1295.9559 
     306   -400.52348    2.6278205   -397.89566    189.99724    11323.928    1295.9559 
     307   -400.51729    2.6224115   -397.89488    189.60615    11344.582    1295.9559 
     308   -400.51057    2.6164781   -397.89409    189.17716    11367.537    1295.9559 
     309   -400.50333    2.6100263    -397.8933    188.71067    11392.772    1295.9559 
     310   -400.49558    2.6030627   -397.89251    188.20719    11420.263    1295.9559 
     311   -400.48732    2.5955954   -397.89173    187.66729    11449.983    1295.9559 
     312   -400.47857    2.5876331   -397.89094    187.09159    11481.897    1295.9559 
     313   -400.46934    2.5791855   -397.89015    186.48082    11515.969    1295.9559 
     314   -400.45963    2.5702635   -397.88937    185.83574    11552.158    1295.9559 
     315   -400.44946    2.5608787   -397.88858    185.15719    11590.417    1295.9559 
     316   -400.43884    2.5510437    -397.8878     184.4461    11630.699    1295.9559 
     317   -400.42779     2.540772   -397.88702    183.70343    11672.948    1295.9559 
     318   -400.41632    2.5300779   -397.88624    182.93023    11717.107    1295.9559 
     319   -400.40444    2.5189768   -397.88546    182.12759    11763.116    1295.9559 
     320   -400.39217    2.5074846   -397.88468    181.29668     11810.91    1295.9559 
     321   -400.37952    2.4956182    -397.8839    180.43872     11860.42    1295.9559 
     322   -400.36653    2.4833954   -397.88313    179.55498    11911.576    1295.9559 
     323   -400.35319    2.4708345   -397.88236     178.6468    11964.302    1295.9559 
     324   -400.33954    2.4579546   -397.88159    177.71555    12018.519    1295.9559 
     325    -400.3256    2.4447756   -397.88082    176.76268    12074.148    1295.9559 
     326   -400.31137     2.431318   -397.88006    175.78967    12131.103    1295.9559 
     327    -400.2969     2.417603   -397.87929    174.79804    12189.298    1295.9559 
     328   -400.28218    2.4036521   -397.87853    173.78937    12248.644    1295.9559 
     329   -400.26726    2.3894879   -397.87777    172.76526    12309.049    1295.9559 
     330   -400.25215    2.3751329   -397.87702    171.72736    12370.417    1295.9559 
     331   -400.23688    2.3606106   -397.87627    170.67737    12432.655    1295.9559 
     332   -400.22146    2.3459447   -397.87552    169.61699    12495.662    1295.9559 
     333   -400.20593    2.3311593   -397.87477    168.54798     12559.34    1295.9559 
     334    -400.1903     2.316279   -397.87403     167.4721    12623.586    1295.9559 
     335   -400.17461    2.3013287   -397.87328    166.39115    12688.299    1295.9559 
     336   -400.15888    2.2863333   -397.87255    165.30696    12753.372    1295.9559 
     337   -400.14313    2.2713184   -397.87181    164.22135    12818.702    1295.9559 
     338   -400.12739    2.2563095   -397.87108    163.13617    12884.181    1295.9559 
     339   -400.11168    2.2413323   -397.87035    162.05328    12949.704    1295.9559 
     340   -400.09604    2.2264127   -397.86963    160.97456    13015.162    1295.9559 
     341   -400.08048    2.2115766    -397.8689    159.90188    13080.447    1295.9559 
     342   -400.06503    2.1968499   -397.86818     158.8371    13145.453    1295.9559 
     343   -400.04972    2.1822584   -397.86747    157.78211    13210.069    1295.9559 
     344   -400.03458    2.1678282   -397.86675    156.73877    13274.189    1295.9559 
     345   -400.01963    2.1535847   -397.86604    155.70894    13337.704    1295.9559 
     346   -400.00489    2.1395537   -397.86533    154.69447    13400.508    1295.9559 
     347   -399.99039    2.1257605   -397.86463    153.69719    13462.495    1295.9559 
     348   -399.97616    2.1122301   -397.86393    152.71891     13523.56    1295.9559 
     349   -399.96222    2.0989874   -397.86323    151.76143    13583.598    1295.9559 
     350   -399.94859    2.0860567   -397.86253    150.82652    13642.507    1295.9559 
     351    -399.9353    2.0734623   -397.86184    149.91591    13700.185    1295.9559 
     352   -399.92237    2.0612276   -397.86115    149.03131    13756.534    1295.9559 
     353   -399.90983    2.0493759   -397.86046    148.17441    13811.455    1295.9559 
     354    -399.8977    2.0379298   -397.85977    147.34683    13864.854    1295.9559 
     355     -399.886    2.0269113   -397.85908    146.55017    13916.637    1295.9559 
     356   -399.87474     2.016342    -397.8584    145.78599    13966.714    1295.9559 
     357   -399.86396    2.0062426   -397.85772    145.05578    14014.997    1295.9559 
     358   -399.85367    1.9966334   -397.85704    144.36101    14061.402    1295.9559 
     359    -399.8439    1.9875337   -397.85636    143.70308    14105.845    1295.9559 
     360   -399.83465    1.9789621   -397.85569    143.08334    14148.248    1295.9559 
     361   -399.82595    1.9709366   -397.85501    142.50308    14188.536    1295.9559 
     362   -399.81781    1.9634742   -397.85434    141.96353    14226.635    1295.9559 
     363   -399.81025     1.956591   -397.85366    141.46586    14262.477    1295.9559 
     364   -399.80329    1.9503024   -397.85299    141.01117    14295.997    1295.9559 
     365   -399.79694    1.9446226   -397.85232    140.60051    14327.133    1295.9559 
     366   -399.79121     1.939565   -397.85165    140.23484    14355.828    1295.9559 
     367   -399.78612    1.9351421   -397.85098    139.91506    14382.028    1295.9559 
     368   -399.78167    1.9313653    -397.8503    139.64198    14405.685    1295.9559 
     369   -399.77788    1.9282448   -397.84963    139.41637    14426.753    1295.9559 
     370   -399.77475    1.9257901   -397.84896    139.23889     14445.19    1295.9559 
     371   -399.77229    1.9240094   -397.84828    139.11014    14460.962    1295.9559 
     372   -399.77052    1.9229098   -397.84761    139.03063    14474.036    1295.9559 
     373   -399.76943    1.9224973   -397.84693    139.00081    14484.384    1295.9559 
     374   -399.76903    1.9227769   -397.84626    139.02102    14491.984    1295.9559 
     375   -399.76933    1.9237524   -397.84558    139.09155    14496.817    1295.9559 
     376   -399.77032    1.9254264    -397.8449    139.21259    14498.869    1295.9559 
     377   -399.77202    1.9278004   -397.84421    139.38423    14498.132    1295.9559 
     378    -399.7744    1.9308748   -397.84353    139.60652      14494.6    1295.9559 
     379   -399.77749    1.9346487   -397.84284    139.87938    14488.275    1295.9559 
     380   -399.78127    1.9391203   -397.84215    140.20269     14479.16    1295.9559 
     381   -399.78574    1.9442864   -397.84146    140.57621    14467.267    1295.9559 
     382    -399.7909    1.9501427   -397.84076    140.99963    14452.608    1295.9559 
     383   -399.79674     1.956684   -397.84006    141.47258    14435.203    1295.9559 
     384   -399.80326    1.9639035   -397.83935    141.99457    14415.076    1295.9559 
     385   -399.81044    1.9717938   -397.83864    142.56505    14392.254    1295.9559 
     386   -399.81828     1.980346   -397.83793    143.18339    14366.769    1295.9559 
     387   -399.82676    1.9895503   -397.83721    143.84889    14338.659    1295.9559 
     388   -399.83588    1.9993958   -397.83649    144.56074    14307.965    1295.9559 
     389   -399.84563    2.0098705   -397.83576    145.31808    14274.732    1295.9559 
     390   -399.85599    2.0209614   -397.83503    146.11998     14239.01    1295.9559 
     391   -399.86694    2.0326545   -397.83429    146.96542    14200.854    1295.9559 
     392   -399.87848    2.0449349   -397.83354    147.85332     14160.32    1295.9559 
     393   -399.89058    2.0577865   -397.83279    148.78252    14117.471    1295.9559 
     394   -399.90323    2.0711926   -397.83204    149.75181    14072.371    1295.9559 
     395   -399.91641    2.0851353   -397.83127    150.75989    14025.091    1295.9559 
     396    -399.9301     2.099596    -397.8305    151.80544    13975.702    1295.9559 
     397   -399.94428    2.1145554   -397.82973    152.88703    13924.282    1295.9559 
     398   -399.95894     2.129993   -397.82895    154.00321    13870.909    1295.9559 
     399   -399.97404    2.1458881   -397.82816    155.15246    13815.667    1295.9559 
     400   -399.98958    2.1622188   -397.82736     156.3332    13758.641    1295.9559 
     401   -400.00552    2.1789629   -397.82655    157.54383    13699.919    1295.9559 
     402   -400.02184    2.1960972   -397.82574    158.78268    13639.594    1295.9559 
     403   -400.03852    2.2135982   -397.82492    160.04805    13577.758    1295.9559 
     404   -400.05554    2.2314418   -397.82409    161.33818    13514.508    1295.9559 
     405   -400.07286    2.2496034   -397.82326     162.6513    13449.942    1295.9559 
     406   -400.09047    2.2680577   -397.82242    163.98559    13384.161    1295.9559 
     407   -400.10834    2.2867793   -397.82156     165.3392    13317.266    1295.9559 
     408   -400.12645    2.3057424    -397.8207    166.71027    13249.361    1295.9559 
     409   -400.14476    2.3249206   -397.81984     168.0969    13180.552    1295.9559 
     410   -400.16325    2.3442875   -397.81896    169.49717    13110.945    1295.9559 
     411   -400.18189    2.3638164   -397.81808    170.90915    13040.646    1295.9559 
     412   -400.20066    2.3834803   -397.81718     172.3309    12969.766    1295.9559 
     413   -400.21953    2.4032523   -397.81628    173.76046    12898.413    1295.9559 
     414   -400.23848    2.4231051   -397.81537    175.19586    12826.696    1295.9559 
     415   -400.25746    2.4430115   -397.81445    176.63514    12754.726    1295.9559 
     416   -400.27647    2.4629445   -397.81353    178.07633    12682.612    1295.9559 
     417   -400.29547    2.4828767   -397.81259    179.51747    12610.465    1295.9559 
     418   -400.31443    2.5027811   -397.81165    180.95661    12538.394    1295.9559 
     419   -400.33332    2.5226307   -397.81069    182.39178    12466.508    1295.9559 
     420   -400.35213    2.5423989   -397.80973    183.82106    12394.917    1295.9559 
     421   -400.37082    2.5620589   -397.80876    185.24252    12323.727    1295.9559 
     422   -400.38937    2.5815845   -397.80779    186.65427    12253.047    1295.9559 
     423   -400.40775    2.6009497    -397.8068    188.05441    12182.982    1295.9559 
     424   -400.42594    2.6201287   -397.80581     189.4411    12113.636    1295.9559 
     425    -400.4439    2.6390963    -397.8048     190.8125    12045.113    1295.9559 
     426   -400.46162    2.6578275    -397.8038    192.16681    11977.515    1295.9559 
     427   -400.47908    2.6762979   -397.80278    193.50226    11910.941    1295.9559 
     428   -400.49624    2.6944834   -397.80175    194.81711    11845.489    1295.9559 
     429   -400.51308    2.7123606   -397.80072    196.10967    11781.256    1295.9559 
     430   -400.52959    2.7299066   -397.79968    197.37828    11718.334    1295.9559 
     431   -400.54573    2.7470989   -397.79863    198.62133    11656.816    1295.9559 
     432   -400.56149    2.7639158   -397.79758    199.83723    11596.791    1295.9559 
     433   -400.57685    2.7803363   -397.79652    201.02446    11538.345    1295.9559 
     434   -400.59179    2.7963397   -397.79545    202.18155    11481.562    1295.9559 
     435   -400.60628    2.8119064   -397.79437    203.30705    11426.523    1295.9559 
     436   -400.62031    2.8270172   -397.79329    204.39959    11373.308    1295.9559 
     437   -400.63386    2.8416538   -397.79221    205.45785     11321.99    1295.9559 
     438   -400.64691    2.8557986   -397.79111    206.48055    11272.644    1295.9559 
     439   -400.65945    2.8694348   -397.79002    207.46648    11225.338    1295.9559 
     440   -400.67146    2.8825463   -397.78891    208.41447    11180.138    1295.9559 
     441   -400.68292    2.8951179    -397.7878    209.32343    11137.107    1295.9559 
     442   -400.69382    2.9071352   -397.78669    210.19231    11096.304    1295.9559 
     443   -400.70415    2.9185847   -397.78557    211.02013    11057.785    1295.9559 
     444    -400.7139    2.9294536   -397.78445    211.80598    11021.603    1295.9559 
     445   -400.72305    2.9397301   -397.78332    212.54899    10987.806    1295.9559 
     446   -400.73159    2.9494032   -397.78219    213.24837     10956.44    1295.9559 
     447   -400.73951    2.9584628   -397.78105     213.9034    10927.544    1295.9559 
     448   -400.74681    2.9668996   -397.77991     214.5134    10901.158    1295.9559 
     449   -400.75348    2.9747055   -397.77877    215.07779    10877.314    1295.9559 
     450    -400.7595    2.9818729   -397.77762    215.59601    10856.043    1295.9559 
     451   -400.76487    2.9883954   -397.77648     216.0676    10837.369    1295.9559 
     452   -400.76959    2.9942675   -397.77533    216.49216    10821.315    1295.9559 
     453   -400.77366    2.9994843   -397.77417    216.86935    10807.897    1295.9559 
     454   -400.77706    3.0040423   -397.77302     217.1989     10797.13    1295.9559 
     455    -400.7798    3.0079385   -397.77186    217.48061    10789.024    1295.9559 
     456   -400.78188     3.011171   -397.77071    217.71432    10783.582    1295.9559 
     457   -400.78329    3.0137388   -397.76955    217.89998    10780.807    1295.9559 
     458   -400.78403    3.0156418   -397.76839    218.03757    10780.696    1295.9559 
     459   -400.78411    3.0168807   -397.76723    218.12715    10783.241    1295.9559 
     460   -400.78353    3.0174574   -397.76607    218.16884    10788.432    1295.9559 
     461   -400.78229    3.0173743   -397.76491    218.16283    10796.253    1295.9559 
     462   -400.78039    3.0166349   -397.76375    218.10937    10806.685    1295.9559 
     463   -400.77784    3.0152436   -397.76259    218.00878    10819.704    1295.9559 
     464   -400.77464    3.0132055   -397.76144    217.86142    10835.285    1295.9559 
     465   -400.77081    3.0105268   -397.76028    217.66775    10853.394    1295.9559 
     466   -400.76634    3.0072144   -397.75912    217.42825    10873.999    1295.9559 
     467   -400.76125     3.003276   -397.75797     217.1435     10897.06    1295.9559 
     468   -400.75554    2.9987201   -397.75682     216.8141    10922.534    1295.9559 
     469   -400.74922    2.9935562   -397.75567    216.44073    10950.376    1295.9559 
     470   -400.74231    2.9877943   -397.75452    216.02414    10980.535    1295.9559 
     471   -400.73482    2.9814454   -397.75337     215.5651     11012.96    1295.9559 
     472   -400.72675    2.9745213   -397.75223    215.06447    11047.595    1295.9559 
     473   -400.71813    2.9670342   -397.75109    214.52314    11084.379    1295.9559 
     474   -400.70895    2.9589974   -397.74996    213.94206    11123.251    1295.9559 
     475   -400.69925    2.9504247   -397.74882    213.32223    11164.146    1295.9559 
     476   -400.68903    2.9413307   -397.74769    212.66471    11206.995    1295.9559 
     477    -400.6783    2.9317304   -397.74657    211.97059    11251.729    1295.9559 
     478   -400.66709    2.9216397   -397.74545    211.24101    11298.275    1295.9559 
     479   -400.65541    2.9110751   -397.74433    210.47717    11346.556    1295.9559 
     480   -400.64327    2.9000535   -397.74322    209.68028    11396.496    1295.9559 
     481    -400.6307    2.8885926   -397.74211    208.85163    11448.014    1295.9559 
     482   -400.61772    2.8767104   -397.74101    207.99252    11501.029    1295.9559 
     483   -400.60433    2.8644255   -397.73991     207.1043    11555.457    1295.9559 
     484   -400.59057    2.8517571   -397.73881    206.18835    11611.213    1295.9559 
     485   -400.57645    2.8387247   -397.73773    205.24608     11668.21    1295.9559 
     486   -400.56199    2.8253484   -397.73664    204.27894    11726.361    1295.9559 
     487   -400.54721    2.8116484   -397.73556     203.2884    11785.575    1295.9559 
     488   -400.53214    2.7976456   -397.73449    202.27597    11845.763    1295.9559 
     489   -400.51679     2.783361   -397.73343    201.24316    11906.833    1295.9559 
     490   -400.50118     2.768816   -397.73236    200.19152    11968.693    1295.9559 
     491   -400.48534    2.7540322   -397.73131    199.12262     12031.25    1295.9559 
     492   -400.46929    2.7390316   -397.73026    198.03804    12094.412    1295.9559 
     493   -400.45305    2.7238361   -397.72922    196.93938    12158.086    1295.9559 
     494   -400.43665    2.7084681   -397.72818    195.82824    12222.177    1295.9559 
     495    -400.4201      2.69295   -397.72715    194.70624    12286.594    1295.9559 
     496   -400.40343    2.6773041   -397.72612    193.57501    12351.241    1295.9559 
     497   -400.38666    2.6615531    -397.7251    192.43618    12416.028    1295.9559 
     498   -400.36981    2.6457195   -397.72409    191.29137     12480.86    1295.9559 
     499   -400.35291    2.6298259   -397.72308    190.14223    12545.647    1295.9559 
     500   -400.33598    2.6138946   -397.72208    188.99036    12610.298    1295.9559 
     501   -400.31904    2.5979482   -397.72109     187.8374    12674.722    1295.9559 
     502   -400.30211    2.5820089    -397.7201    186.68496     12738.83    1295.9559 
     503   -400.28522    2.5660989   -397.71912    185.53462    12802.535    1295.9559 
     504   -400.26838    2.5502399   -397.71814    184.38799     12865.75    1295.9559 
     505   -400.25163    2.5344538   -397.71717    183.24662     12928.39    1295.9559 
     506   -400.23497    2.5187619   -397.71621    182.11206     12990.37    1295.9559 
     507   -400.21844    2.5031853   -397.71525    180.98583    13051.609    1295.9559 
     508   -400.20204    2.4877447    -397.7143    179.86944    13112.027    1295.9559 
     509   -400.18581    2.4724605   -397.71335    178.76436    13171.545    1295.9559 
     510   -400.16977    2.4573526   -397.71241    177.67203    13230.086    1295.9559 
     511   -400.15392    2.4424405   -397.71148    176.59385    13287.577    1295.9559 
     512    -400.1383    2.4277431   -397.71055     175.5312    13343.945    1295.9559 
     513   -400.12291     2.413279   -397.70963    174.48541    13399.122    1295.9559 
     514   -400.10778     2.399066   -397.70871    173.45778     13453.04    1295.9559 
     515   -400.09292    2.3851215    -397.7078    172.44956    13505.636    1295.9559 
     516   -400.07836     2.371462   -397.70689    171.46195    13556.847    1295.9559 
     517    -400.0641    2.3581037   -397.70599    170.49612    13606.616    1295.9559 
     518   -400.05016     2.345062    -397.7051    169.55317    13654.886    1295.9559 
     519   -400.03656    2.3323514   -397.70421    168.63416    13701.606    1295.9559 
     520   -400.02331    2.3199858   -397.70332    167.74011    13746.726    1295.9559 
     521   -400.01042    2.3079785   -397.70244    166.87195    13790.199    1295.9559 
     522    -399.9979    2.2963418   -397.70156    166.03059    13831.983    1295.9559 
     523   -399.98578    2.2850872   -397.70069    165.21686    13872.038    1295.9559 
     524   -399.97405    2.2742256   -397.69982    164.43154    13910.326    1295.9559 
     525   -399.96272    2.2637668   -397.69896    163.67535    13946.816    1295.9559 
     526   -399.95181    2.2537199    -397.6981    162.94893    13981.478    1295.9559 
     527   -399.94133     2.244093   -397.69724    162.25289    14014.284    1295.9559 
     528   -399.93128    2.2348935   -397.69639    161.58774    14045.214    1295.9559 
     529   -399.92166    2.2261278   -397.69554    160.95396    14074.246    1295.9559 
     530   -399.91249    2.2178014   -397.69469    160.35195    14101.368    1295.9559 
     531   -399.90377    2.2099189   -397.69385    159.78202    14126.566    1295.9559 
     532   -399.89549     2.202484   -397.69301    159.24447    14149.832    1295.9559 
     533   -399.88767    2.1954996   -397.69217    158.73947    14171.162    1295.9559 
     534    -399.8803    2.1889674   -397.69133    158.26719    14190.554    1295.9559 
     535   -399.87339    2.1828886    -397.6905    157.82768     14208.01    1295.9559 
     536   -399.86694    2.1772633   -397.68967    157.42095    14223.537    1295.9559 
     537   -399.86094    2.1720906   -397.68884    157.04695    14237.143    1295.9559 
     538   -399.85539    2.1673689   -397.68802    156.70556    14248.841    1295.9559 
     539   -399.85029    2.1630957   -397.68719     156.3966    14258.647    1295.9559 
     540   -399.84564    2.1592676   -397.68637    156.11982     14266.58    1295.9559 
     541   -399.84143    2.1558805   -397.68555    155.87493    14272.663    1295.9559 
     542   -399.83766    2.1529293   -397.68473    155.66155     14276.92    1295.9559 
     543   -399.83432    2.1504084   -397.68391    155.47928     14279.38    1295.9559 
     544   -399.83141    2.1483111   -397.68309    155.32764    14280.075    1295.9559 
     545   -399.82891    2.1466301   -397.68228     155.2061    14279.039    1295.9559 
     546   -399.82682    2.1453575   -397.68146    155.11409     14276.31    1295.9559 
     547   -399.82513    2.1444846   -397.68065    155.05098    14271.926    1295.9559 
     548   -399.82383    2.1440021   -397.67983    155.01609    14265.932    1295.9559 
     549   -399.82291       2.1439   -397.67901    155.00871    14258.372    1295.9559 
     550   -399.82237    2.1441678    -397.6782    155.02807    14249.293    1295.9559 
     551   -399.82218    2.1447943   -397.67738    155.07337    14238.746    1295.9559 
     552   -399.82234    2.1457681   -397.67657    155.14378    14226.783    1295.9559 
     553   -399.82283    2.1470769   -397.67575    155.23841    14213.457    1295.9559 
     554   -399.82365    2.1487082   -397.67494    155.35635    14198.824    1295.9559 
     555   -399.82477     2.150649   -397.67412    155.49668    14182.943    1295.9559 
     556   -399.82619    2.1528861    -397.6733    155.65843    14165.873    1295.9559 
     557   -399.82789    2.1554057   -397.67249     155.8406    14147.673    1295.9559 
     558   -399.82986    2.1581939   -397.67167     156.0422    14128.408    1295.9559 
     559   -399.83208    2.1612365   -397.67085    156.26218    14108.139    1295.9559 
     560   -399.83454    2.1645189   -397.67003    156.49951    14086.932    1295.9559 
     561   -399.83723    2.1680266    -397.6692    156.75312    14064.851    1295.9559 
     562   -399.84013    2.1717447   -397.66838    157.02195    14041.963    1295.9559 
     563   -399.84322    2.1756585   -397.66756    157.30492    14018.333    1295.9559 
     564   -399.84648    2.1797528   -397.66673    157.60095     13994.03    1295.9559 
     565   -399.84992    2.1840127    -397.6659    157.90895    13969.119    1295.9559 
     566    -399.8535    2.1884232   -397.66508    158.22784    13943.669    1295.9559 
     567   -399.85721    2.1929694   -397.66425    158.55653    13917.748    1295.9559 
     568   -399.86105    2.1976362   -397.66341    158.89396    13891.421    1295.9559 
     569   -399.86499     2.202409   -397.66258    159.23904    13864.758    1295.9559 
     570   -399.86902    2.2072731   -397.66175    159.59073    13837.823    1295.9559 
     571   -399.87312    2.2122139   -397.66091    159.94796    13810.683    1295.9559 
     572   -399.87729    2.2172171   -397.66007     160.3097    13783.402    1295.9559 
     573    -399.8815    2.2222687   -397.65923    160.67494    13756.047    1295.9559 
     574   -399.88575    2.2273548   -397.65839    161.04268    13728.681    1295.9559 
     575   -399.89001    2.2324618   -397.65755    161.41192    13701.365    1295.9559 
     576   -399.89428    2.2375764   -397.65671    161.78172    13674.163    1295.9559 
     577   -399.89855    2.2426856   -397.65586    162.15113    13647.133    1295.9559 
     578   -399.90279    2.2477769   -397.65501    162.51924    13620.336    1295.9559 
     579     -399.907     2.252838   -397.65417    162.88517    13593.829    1295.9559 
     580   -399.91117    2.2578568   -397.65332    163.24804    13567.668    1295.9559 
     581   -399.91529     2.262822   -397.65246    163.60704    13541.908    1295.9559 
     582   -399.91933    2.2677225   -397.65161    163.96135    13516.602    1295.9559 
     583    -399.9233    2.2725474   -397.65076     164.3102    13491.802    1295.9559 
     584   -399.92719    2.2772865    -397.6499    164.65285    13467.559    1295.9559 
     585   -399.93097    2.2819301   -397.64904    164.98859    13443.919    1295.9559 
     586   -399.93465    2.2864686   -397.64818    165.31674     13420.93    1295.9559 
     587   -399.93822    2.2908932   -397.64732    165.63665    13398.635    1295.9559 
     588   -399.94166    2.2951954   -397.64646     165.9477    13377.078    1295.9559 
     589   -399.94497    2.2993671    -397.6456    166.24933      13356.3    1295.9559 
     590   -399.94814    2.3034008   -397.64474    166.54097    13336.338    1295.9559 
     591   -399.95116    2.3072894   -397.64387    166.82212    13317.231    1295.9559 
     592   -399.95404    2.3110262   -397.64301     167.0923    13299.012    1295.9559 
     593   -399.95675     2.314605   -397.64214    167.35106    13281.715    1295.9559 
     594    -399.9593    2.3180202   -397.64128    167.59799    13265.371    1295.9559 
     595   -399.96168    2.3212666   -397.64041    167.83271    13250.008    1295.9559 
     596   -399.96388    2.3243392   -397.63954    168.05486    13235.653    1295.9559 
     597   -399.96591    2.3272338   -397.63867    168.26415    13222.331    1295.9559 
     598   -399.96775    2.3299464   -397.63781    168.46028    13210.066    1295.9559 
     599   -399.96941    2.3324736   -397.63694      168.643    13198.877    1295.9559 
     600   -399.97088    2.3348125   -397.63607    168.81211    13188.785    1295.9559 
     601   -399.97216    2.3369603    -397.6352     168.9674    13179.804    1295.9559 
     602   -399.97324    2.3389149   -397.63433    169.10872    13171.951    1295.9559 
     603   -399.97413    2.3406745   -397.63346    169.23595    13165.238    1295.9559 
     604   -399.97482    2.3422379   -397.63259    169.34898    13159.676    1295.9559 
     605   -399.97532    2.3436039   -397.63172    169.44775    13155.272    1295.9559 
     606   -399.97562     2.344772   -397.63085     169.5322    13152.035    1295.9559 
     607   -399.97572    2.3457421   -397.62998    169.60234    13149.969    1295.9559 
     608   -399.97562    2.3465142   -397.62911    169.65817    13149.076    1295.9559 
     609   -399.97533    2.3470889   -397.62824    169.69972    13149.357    1295.9559 
     610   -399.97484    2.3474671   -397.62737    169.72706    13150.812    1295.9559 
     611   -399.97415      2.34765    -397.6265    169.74029    13153.436    1295.9559 
     612   -399.97328    2.3476391   -397.62564     169.7395    13157.226    1295.9559 
     613   -399.97221    2.3474363   -397.62477    169.72483    13162.173    1295.9559 
     614   -399.97095    2.3470437    -397.6239    169.69645     13168.27    1295.9559 
     615    -399.9695     2.346464   -397.62304    169.65454    13175.507    1295.9559 
     616   -399.96788    2.3456999   -397.62218    169.59929     13183.87    1295.9559 
     617   -399.96607    2.3447545   -397.62131    169.53094    13193.347    1295.9559 
     618   -399.96408    2.3436312   -397.62045    169.44972    13203.921    1295.9559 
     619   -399.96193    2.3423337   -397.61959    169.35591    13215.575    1295.9559 
     620    -399.9596     2.340866   -397.61873    169.24979     13228.29    1295.9559 
     621   -399.95711    2.3392323   -397.61787    169.13167    13242.044    1295.9559 
     622   -399.95445    2.3374371   -397.61702    169.00187    13256.817    1295.9559 
     623   -399.95165    2.3354852   -397.61616    168.86075    13272.582    1295.9559 
     624   -399.94869    2.3333817   -397.61531    168.70866    13289.316    1295.9559 
     625   -399.94559     2.331132   -397.61446      168.546     13306.99    1295.9559 
     626   -399.94235    2.3287415   -397.61361    168.37316    13325.575    1295.9559 
     627   -399.93897    2.3262161   -397.61276    168.19057    13345.043    1295.9559 
     628   -399.93547    2.3235621   -397.61191    167.99868     13365.36    1295.9559 
     629   -399.93185    2.3207857   -397.61106    167.79794    13386.494    1295.9559 
     630   -399.92811    2.3178935   -397.61022    167.58883    13408.411    1295.9559 
     631   -399.92427    2.3148926   -397.60938    167.37185    13431.074    1295.9559 
     632   -399.92033      2.31179   -397.60854    167.14753    13454.447    1295.9559 
     633   -399.91629    2.3085931    -397.6077    166.91639    13478.491    1295.9559 
     634   -399.91217    2.3053096   -397.60686    166.67899    13503.166    1295.9559 
     635   -399.90797    2.3019475   -397.60603     166.4359    13528.432    1295.9559 
     636   -399.90371     2.298515   -397.60519    166.18772    13554.246    1295.9559 
     637   -399.89938    2.2950204   -397.60436    165.93505    13580.565    1295.9559 
     638     -399.895    2.2914724   -397.60353    165.67853    13607.344    1295.9559 
     639   -399.89058    2.2878801    -397.6027    165.41879    13634.538    1295.9559 
     640   -399.88613    2.2842526   -397.60188    165.15651      13662.1    1295.9559 
     641   -399.88166    2.2805992   -397.60106    164.89237    13689.983    1295.9559 
     642   -399.87717    2.2769297   -397.60024    164.62706    13718.138    1295.9559 
     643   -399.87267     2.273254   -397.59942    164.36129    13746.515    1295.9559 
     644   -399.86818    2.2695821    -397.5986    164.09581    13775.065    1295.9559 
     645   -399.86371    2.2659244   -397.59778    163.83134    13803.735    1295.9559 
     646   -399.85926    2.2622913   -397.59697    163.56866    13832.475    1295.9559 
     647   -399.85485    2.2586936   -397.59616    163.30854    13861.231    1295.9559 
     648   -399.85049    2.2551421   -397.59535    163.05176    13889.951    1295.9559 
     649   -399.84619     2.251648   -397.59454    162.79913     13918.58    1295.9559 
     650   -399.84196    2.2482224   -397.59374    162.55145    13947.064    1295.9559 
     651   -399.83781    2.2448766   -397.59293    162.30954     13975.35    1295.9559 
     652   -399.83375    2.2416221   -397.59213    162.07423    14003.382    1295.9559 
     653    -399.8298    2.2384704   -397.59133    161.84636    14031.105    1295.9559 
     654   -399.82597    2.2354332   -397.59053    161.62676    14058.465    1295.9559 
     655   -399.82226    2.2325221   -397.58974    161.41628    14085.407    1295.9559 
     656   -399.81869    2.2297488   -397.58894    161.21577    14111.876    1295.9559 
     657   -399.81527     2.227125   -397.58815    161.02607    14137.817    1295.9559 
     658   -399.81202    2.2246626   -397.58736    160.84802    14163.176    1295.9559 
     659   -399.80894     2.222373   -397.58657    160.68248    14187.899    1295.9559 
     660   -399.80605    2.2202679   -397.58578    160.53028    14211.933    1295.9559 
     661   -399.80335    2.2183589   -397.58499    160.39225    14235.225    1295.9559 
     662   -399.80086    2.2166572    -397.5842    160.26922    14257.724    1295.9559 
     663   -399.79859    2.2151741   -397.58342    160.16198    14279.379    1295.9559 
     664   -399.79656    2.2139206   -397.58264    160.07136    14300.139    1295.9559 
     665   -399.79476    2.2129076   -397.58185    159.99811    14319.956    1295.9559 
     666   -399.79322    2.2121455   -397.58107    159.94302    14338.783    1295.9559 
     667   -399.79194    2.2116448   -397.58029    159.90681    14356.572    1295.9559 
     668   -399.79093    2.2114155   -397.57951    159.89023    14373.279    1295.9559 
     669    -399.7902    2.2114671   -397.57873    159.89396    14388.862    1295.9559 
     670   -399.78976     2.211809   -397.57795    159.91868    14403.278    1295.9559 
     671   -399.78962    2.2124501   -397.57717    159.96503    14416.489    1295.9559 
     672    -399.7898    2.2133988    -397.5764    160.03363    14428.455    1295.9559 
     673   -399.79028    2.2146633   -397.57562    160.12505    14439.142    1295.9559 
     674   -399.79109     2.216251   -397.57484    160.23985    14448.514    1295.9559 
     675   -399.79223    2.2181691   -397.57406    160.37853    14456.542    1295.9559 
     676   -399.79371    2.2204239   -397.57329    160.54156    14463.195    1295.9559 
     677   -399.79553    2.2230216   -397.57251    160.72938    14468.447    1295.9559 
     678    -399.7977    2.2259675   -397.57173    160.94237    14472.272    1295.9559 
     679   -399.80022    2.2292664   -397.57095    161.18089     14474.65    1295.9559 
     680    -399.8031    2.2329225   -397.57017    161.44524    14475.559    1295.9559 
     681   -399.80633    2.2369394   -397.56939    161.73567    14474.982    1295.9559 
     682   -399.80993    2.2413199   -397.56861    162.05239    14472.906    1295.9559 
     683    -399.8139    2.2460664   -397.56783    162.39557    14469.318    1295.9559 
     684   -399.81823    2.2511804   -397.56705    162.76532    14464.209    1295.9559 
     685   -399.82293    2.2566628   -397.56627    163.16171    14457.574    1295.9559 
     686     -399.828    2.2625139   -397.56548    163.58476    14449.408    1295.9559 
     687   -399.83343    2.2687332    -397.5647    164.03443    14439.712    1295.9559 
     688   -399.83923    2.2753194   -397.56391    164.51063    14428.486    1295.9559 
     689   -399.84539    2.2822708   -397.56312    165.01323    14415.737    1295.9559 
     690   -399.85192    2.2895847   -397.56233    165.54204    14401.471    1295.9559 
     691    -399.8588     2.297258   -397.56154    166.09683      14385.7    1295.9559 
     692   -399.86603    2.3052866   -397.56074    166.67732    14368.435    1295.9559 
     693   -399.87361    2.3136659   -397.55995    167.28316    14349.694    1295.9559 
     694   -399.88154    2.3223905   -397.55915    167.91397    14329.495    1295.9559 
     695    -399.8898    2.3314546   -397.55835    168.56932    14307.858    1295.9559 
     696    -399.8984    2.3408514   -397.55755    169.24873    14284.808    1295.9559 
     697   -399.90731    2.3505736   -397.55674    169.95167     14260.37    1295.9559 
     698   -399.91654    2.3606134   -397.55593    170.67757    14234.573    1295.9559 
     699   -399.92608    2.3709622   -397.55512    171.42581    14207.447    1295.9559 
     700   -399.93592    2.3816108   -397.55431    172.19573    14179.027    1295.9559 
     701   -399.94604    2.3925495   -397.55349    172.98662    14149.348    1295.9559 
     702   -399.95644    2.4037681   -397.55267    173.79775    14118.447    1295.9559 
     703    -399.9671    2.4152558   -397.55185    174.62833    14086.366    1295.9559 
     704   -399.97802    2.4270011   -397.55102    175.47755    14053.146    1295.9559 
     705   -399.98919    2.4389923    -397.5502    176.34454    14018.831    1295.9559 
     706   -400.00058    2.4512171   -397.54936    177.22842    13983.467    1295.9559 
     707   -400.01219    2.4636627   -397.54853    178.12826    13947.103    1295.9559 
     708   -400.02401    2.4763159   -397.54769    179.04312    13909.788    1295.9559 
     709   -400.03601    2.4891633   -397.54685    179.97201    13871.574    1295.9559 
     710   -400.04819    2.5021908     -397.546    180.91393    13832.513    1295.9559 
     711   -400.06054    2.5153841   -397.54516    181.86784    13792.659    1295.9559 
     712   -400.07303    2.5287288    -397.5443    182.83268     13752.07    1295.9559 
     713   -400.08566    2.5422098   -397.54345    183.80739      13710.8    1295.9559 
     714    -400.0984    2.5558121   -397.54259    184.79087     13668.91    1295.9559 
     715   -400.11125    2.5695202   -397.54173    185.78199    13626.457    1295.9559 
     716   -400.12418    2.5833186   -397.54086    186.77965    13583.502    1295.9559 
     717   -400.13718    2.5971915   -397.53999    187.78269    13540.106    1295.9559 
     718   -400.15024     2.611123   -397.53912    188.78997    13496.331    1295.9559 
     719   -400.16334     2.625097   -397.53824    189.80032    13452.239    1295.9559 
     720   -400.17646    2.6390974   -397.53736    190.81258    13407.893    1295.9559 
     721   -400.18959     2.653108   -397.53648    191.82558    13363.356    1295.9559 
     722    -400.2027    2.6671125   -397.53559    192.83814    13318.691    1295.9559 
     723   -400.21579    2.6810947    -397.5347    193.84908    13273.961    1295.9559 
     724   -400.22884    2.6950383   -397.53381    194.85723     13229.23    1295.9559 
     725   -400.24184     2.708927   -397.53291    195.86141    13184.561    1295.9559 
     726   -400.25475    2.7227447   -397.53201    196.86046    13140.018    1295.9559 
     727   -400.26758    2.7364753    -397.5311    197.85321    13095.662    1295.9559 
     728    -400.2803    2.7501028    -397.5302    198.83851    13051.555    1295.9559 
     729    -400.2929    2.7636114   -397.52928    199.81522    13007.758    1295.9559 
     730   -400.30536    2.7769854   -397.52837    200.78219    12964.334    1295.9559 
     731   -400.31766    2.7902093   -397.52745     201.7383     12921.34    1295.9559 
     732    -400.3298    2.8032678   -397.52653    202.68246    12878.837    1295.9559 
     733   -400.34176    2.8161458   -397.52561    203.61357    12836.882    1295.9559 
     734   -400.35351    2.8288285   -397.52469    204.53056    12795.533    1295.9559 
     735   -400.36506    2.8413014   -397.52376    205.43237    12754.845    1295.9559 
     736   -400.37638    2.8535501   -397.52283    206.31798    12714.873    1295.9559 
     737   -400.38745    2.8655608   -397.52189    207.18638    12675.672    1295.9559 
     738   -400.39828    2.8773197   -397.52096    208.03658    12637.292    1295.9559 
     739   -400.40883    2.8888138   -397.52002    208.86763    12599.785    1295.9559 
     740   -400.41911    2.9000299   -397.51908    209.67858      12563.2    1295.9559 
     741   -400.42909    2.9109557   -397.51813    210.46854    12527.584    1295.9559 
     742   -400.43877    2.9215791   -397.51719    211.23663    12492.985    1295.9559 
     743   -400.44813    2.9318883   -397.51624    211.98201    12459.446    1295.9559 
     744   -400.45717    2.9418721   -397.51529    212.70386     12427.01    1295.9559 
     745   -400.46586    2.9515198   -397.51434    213.40141    12395.718    1295.9559 
     746   -400.47421     2.960821   -397.51339    214.07391    12365.608    1295.9559 
     747    -400.4822     2.969766   -397.51244    214.72065    12336.717    1295.9559 
     748   -400.48983    2.9783453   -397.51148    215.34095    12309.082    1295.9559 
     749   -400.49708    2.9865502   -397.51053    215.93419    12282.733    1295.9559 
     750   -400.50394    2.9943724   -397.50957    216.49975    12257.703    1295.9559 
     751   -400.51042    3.0018041   -397.50861    217.03708     12234.02    1295.9559 
     752   -400.51649    3.0088382   -397.50765    217.54566     12211.71    1295.9559 
     753   -400.52216    3.0154679   -397.50669      218.025    12190.797    1295.9559 
     754   -400.52742    3.0216871   -397.50573    218.47466    12171.304    1295.9559 
     755   -400.53227    3.0274904   -397.50477    218.89425     12153.25    1295.9559 
     756   -400.53669    3.0328728   -397.50381    219.28341    12136.653    1295.9559 
     757   -400.54068    3.0378298   -397.50285    219.64181    12121.528    1295.9559 
     758   -400.54425    3.0423577   -397.50189    219.96919    12107.888    1295.9559 
     759   -400.54739    3.0464532   -397.50093    220.26531    12095.743    1295.9559 
     760   -400.55009    3.0501138   -397.49997    220.52997    12085.102    1295.9559 
     761   -400.55235    3.0533374   -397.49901    220.76304    12075.971    1295.9559 
     762   -400.55418    3.0561225   -397.49806    220.96441    12068.355    1295.9559 
     763   -400.55557    3.0584682    -397.4971    221.13402    12062.254    1295.9559 
     764   -400.55652    3.0603743   -397.49614    221.27183     12057.67    1295.9559 
     765   -400.55703    3.0618412   -397.49518    221.37789    12054.598    1295.9559 
     766    -400.5571    3.0628695   -397.49423    221.45224    12053.037    1295.9559 
     767   -400.55674    3.0634608   -397.49328      221.495    12052.979    1295.9559 
     768   -400.55594    3.0636172   -397.49232     221.5063    12054.416    1295.9559 
     769   -400.55471    3.0633411   -397.49137    221.48634    12057.339    1295.9559 
     770   -400.55306    3.0626356   -397.49042    221.43533    12061.734    1295.9559 
     771   -400.55098    3.0615045   -397.48948    221.35355     12067.59    1295.9559 
     772   -400.54848    3.0599519   -397.48853    221.24129     12074.89    1295.9559 
     773   -400.54557    3.0579824   -397.48759    221.09889    12083.616    1295.9559 
     774   -400.54225    3.0556012   -397.48665    220.92673    12093.751    1295.9559 
     775   -400.53852    3.0528141   -397.48571    220.72521    12105.273    1295.9559 
     776    -400.5344    3.0496272   -397.48477    220.49479    12118.159    1295.9559 
     777   -400.52988     3.046047   -397.48384    220.23594    12132.386    1295.9559 
     778   -400.52498    3.0420806    -397.4829    219.94916    12147.928    1295.9559 
     779   -400.51971    3.0377354   -397.48198    219.63499    12164.757    1295.9559 
     780   -400.51407    3.0330193   -397.48105    219.29401    12182.846    1295.9559 
     781   -400.50807    3.0279406   -397.48013     218.9268    12202.164    1295.9559 
     782   -400.50171    3.0225078    -397.4792      218.534     12222.68    1295.9559 
     783   -400.49502    3.0167298   -397.47829    218.11623    12244.362    1295.9559 
     784   -400.48799    3.0106159   -397.47737    217.67419    12267.177    1295.9559 
     785   -400.48064    3.0041756   -397.47646    217.20854    12291.089    1295.9559 
     786   -400.47297    2.9974188   -397.47555    216.72001    12316.064    1295.9559 
     787     -400.465    2.9903556   -397.47465    216.20932    12342.065    1295.9559 
     788   -400.45674    2.9829961   -397.47375    215.67722    12369.055    1295.9559 
     789    -400.4482     2.975351   -397.47285    215.12446    12396.995    1295.9559 
     790   -400.43939    2.9674309   -397.47195    214.55182    12425.849    1295.9559 
     791   -400.43031    2.9592466   -397.47106    213.96008    12455.578    1295.9559 
     792   -400.42099    2.9508091   -397.47018    213.35003    12486.143    1295.9559 
     793   -400.41142    2.9421295   -397.46929    212.72247    12517.505    1295.9559 
     794   -400.40163    2.9332188   -397.46841    212.07821    12549.626    1295.9559 
     795   -400.39163    2.9240883   -397.46754    211.41805    12582.465    1295.9559 
     796   -400.38141    2.9147493   -397.46667    210.74282    12615.986    1295.9559 
     797   -400.37101     2.905213    -397.4658    210.05332    12650.148    1295.9559 
     798   -400.36042    2.8954905   -397.46493    209.35037    12684.915    1295.9559 
     799   -400.34967    2.8855932   -397.46407    208.63477    12720.248    1295.9559 
     800   -400.33875     2.875532   -397.46322    207.90733    12756.111    1295.9559 
     801   -400.32768    2.8653181   -397.46236    207.16884    12792.466    1295.9559 
     802   -400.31648    2.8549624   -397.46151     206.4201    12829.278    1295.9559 
     803   -400.30515    2.8444757   -397.46067    205.66189     12866.51    1295.9559 
     804    -400.2937    2.8338686   -397.45983    204.89497     12904.13    1295.9559 
     805   -400.28214    2.8231517   -397.45899    204.12011    12942.101    1295.9559 
     806   -400.27049    2.8123352   -397.45816    203.33806    12980.393    1295.9559 
     807   -400.25876    2.8014293   -397.45733    202.54953    13018.971    1295.9559 
     808   -400.24695    2.7904437   -397.45651    201.75525    13057.805    1295.9559 
     809   -400.23507    2.7793882   -397.45569    200.95591    13096.864    1295.9559 
     810   -400.22314    2.7682721   -397.45487     200.1522    13136.119    1295.9559 
     811   -400.21116    2.7571046   -397.45406    199.34476    13175.541    1295.9559 
     812   -400.19914    2.7458944   -397.45325    198.53424    13215.102    1295.9559 
     813   -400.18709    2.7346501   -397.45244    197.72125    13254.776    1295.9559 
     814   -400.17502    2.7233801   -397.45164     196.9064    13294.538    1295.9559 
     815   -400.16294    2.7120921   -397.45085    196.09026    13334.362    1295.9559 
     816   -400.15085    2.7007939   -397.45005    195.27337    13374.225    1295.9559 
     817   -400.13876    2.6894927   -397.44926    194.45627    13414.104    1295.9559 
     818   -400.12667    2.6781956   -397.44848    193.63947    13453.978    1295.9559 
     819   -400.11461    2.6669091    -397.4477    192.82343    13493.825    1295.9559 
     820   -400.10256    2.6556397   -397.44692    192.00862    13533.627    1295.9559 
     821   -400.09054    2.6443932   -397.44615    191.19548    13573.364    1295.9559 
     822   -400.07855    2.6331754   -397.44538     190.3844    13613.019    1295.9559 
     823    -400.0666    2.6219916   -397.44461    189.57579    13652.574    1295.9559 
     824   -400.05469    2.6108468   -397.44385       188.77    13692.013    1295.9559 
     825   -400.04283    2.5997459   -397.44309    187.96738    13731.322    1295.9559 
     826   -400.03102     2.588693   -397.44233    187.16823    13770.487    1295.9559 
     827   -400.01927    2.5776925   -397.44158    186.37287    13809.493    1295.9559 
     828   -400.00758    2.5667481   -397.44083    185.58156    13848.329    1295.9559 
     829   -399.99595    2.5558633   -397.44009    184.79457    13886.983    1295.9559 
     830   -399.98439    2.5450415   -397.43935    184.01213    13925.444    1295.9559 
     831   -399.97289    2.5342857   -397.43861    183.23446    13963.703    1295.9559 
     832   -399.96147    2.5235988   -397.43787    182.46177     14001.75    1295.9559 
     833   -399.95013    2.5129832   -397.43714    181.69424    14039.576    1295.9559 
     834   -399.93886    2.5024414   -397.43641    180.93205    14077.173    1295.9559 
     835   -399.92767    2.4919757   -397.43569    180.17535    14114.535    1295.9559 
     836   -399.91656     2.481588   -397.43497     179.4243    14151.655    1295.9559 
     837   -399.90553    2.4712803   -397.43425    178.67903    14188.526    1295.9559 
     838   -399.89459    2.4610542   -397.43353    177.93966    14225.141    1295.9559 
     839   -399.88373    2.4509116   -397.43282    177.20633    14261.497    1295.9559 
     840   -399.87297    2.4408539   -397.43211    176.47913    14297.587    1295.9559 
     841   -399.86229    2.4308826   -397.43141    175.75819    14333.406    1295.9559 
     842    -399.8517    2.4209992    -397.4307     175.0436    14368.949    1295.9559 
     843   -399.84121    2.4112052      -397.43    174.33547    14404.212    1295.9559 
     844   -399.83081     2.401502   -397.42931    173.63391     14439.19    1295.9559 
     845    -399.8205     2.391891   -397.42861    172.93901    14473.878    1295.9559 
     846    -399.8103    2.3823736   -397.42792    172.25088    14508.272    1295.9559 
     847   -399.80018    2.3729515   -397.42723    171.56964    14542.365    1295.9559 
     848   -399.79017    2.3636263   -397.42655    170.89541    14576.153    1295.9559 
     849   -399.78026    2.3543996   -397.42586     170.2283    14609.631    1295.9559 
     850   -399.77046    2.3452732   -397.42518    169.56844    14642.792    1295.9559 
     851   -399.76075    2.3362492    -397.4245    168.91598    14675.631    1295.9559 
     852   -399.75116    2.3273296   -397.42383    168.27108     14708.14    1295.9559 
     853   -399.74167    2.3185166   -397.42315    167.63388    14740.313    1295.9559 
     854    -399.7323    2.3098128   -397.42248    167.00458    14772.141    1295.9559 
     855   -399.72304    2.3012208   -397.42182    166.38335    14803.616    1295.9559 
     856   -399.71389    2.2927433   -397.42115    165.77041     14834.73    1295.9559 
     857   -399.70487    2.2843835   -397.42049    165.16598    14865.471    1295.9559 
     858   -399.69597    2.2761446   -397.41982    164.57029    14895.831    1295.9559 
     859   -399.68719    2.2680303   -397.41916    163.98361    14925.797    1295.9559 
     860   -399.67855    2.2600442   -397.41851    163.40619    14955.357    1295.9559 
     861   -399.67004    2.2521904   -397.41785    162.83835    14984.499    1295.9559 
     862   -399.66167    2.2444732    -397.4172    162.28038    15013.208    1295.9559 
     863   -399.65344    2.2368971   -397.41655    161.73261    15041.471    1295.9559 
     864   -399.64537    2.2294671    -397.4159     161.1954    15069.271    1295.9559 
     865   -399.63744    2.2221881   -397.41525    160.66911    15096.593    1295.9559 
     866   -399.62967    2.2150655   -397.41461    160.15414     15123.42    1295.9559 
     867   -399.62207     2.208105   -397.41396    159.65087    15149.733    1295.9559 
     868   -399.61463    2.2013124   -397.41332    159.15976    15175.513    1295.9559 
     869   -399.60737    2.1946939   -397.41268    158.68122    15200.742    1295.9559 
     870    -399.6003    2.1882559   -397.41204    158.21574    15225.399    1295.9559 
     871   -399.59341    2.1820049    -397.4114    157.76378    15249.461    1295.9559 
     872   -399.58672    2.1759479   -397.41077    157.32585    15272.908    1295.9559 
     873   -399.58023    2.1700919   -397.41014    156.90245    15295.716    1295.9559 
     874   -399.57395    2.1644443    -397.4095    156.49411    15317.862    1295.9559 
     875   -399.56788    2.1590124   -397.40887    156.10137    15339.321    1295.9559 
     876   -399.56205    2.1538039   -397.40824    155.72479    15360.069    1295.9559 
     877   -399.55644    2.1488267   -397.40761    155.36492     15380.08    1295.9559 
     878   -399.55107    2.1440887   -397.40698    155.02235    15399.328    1295.9559 
     879   -399.54596    2.1395979   -397.40636    154.69766    15417.787    1295.9559 
     880   -399.54109    2.1353625   -397.40573    154.39143     15435.43    1295.9559 
     881    -399.5365    2.1313907   -397.40511    154.10426    15452.229    1295.9559 
     882   -399.53217    2.1276909   -397.40448    153.83676    15468.156    1295.9559 
     883   -399.52813    2.1242713   -397.40386    153.58951    15483.185    1295.9559 
     884   -399.52438    2.1211403   -397.40324    153.36313    15497.287    1295.9559 
     885   -399.52092    2.1183061   -397.40261    153.15822    15510.433    1295.9559 
     886   -399.51777    2.1157771   -397.40199    152.97536    15522.597    1295.9559 
     887   -399.51493    2.1135614   -397.40137    152.81516     15533.75    1295.9559 
     888   -399.51241     2.111667   -397.40075     152.6782    15543.864    1295.9559 
     889   -399.51023     2.110102   -397.40013    152.56504    15552.912    1295.9559 
     890   -399.50838    2.1088741    -397.3995    152.47627    15560.868    1295.9559 
     891   -399.50687     2.107991   -397.39888    152.41241    15567.705    1295.9559 
     892   -399.50572    2.1074599   -397.39826    152.37401    15573.397    1295.9559 
[...]
    9788   -397.97944    4.1456183   -393.83382    299.73737    23894.338    1295.9559 
    9789   -397.99151    4.1582562   -393.83326    300.65112     23853.23    1295.9559 
    9790   -398.00392    4.1712317   -393.83268    301.58928    23811.006    1295.9559 
    9791   -398.01665    4.1845355   -393.83211    302.55118      23767.7    1295.9559 
    9792   -398.02969     4.198158   -393.83153    303.53611    23723.345    1295.9559 
    9793   -398.04304    4.2120887   -393.83096    304.54333    23677.979    1295.9559 
    9794   -398.05669     4.226317   -393.83037    305.57207     23631.64    1295.9559 
    9795   -398.07062    4.2408315   -393.82979     306.6215    23584.368    1295.9559 
    9796   -398.08482    4.2556205    -393.8292    307.69077    23536.205    1295.9559 
    9797   -398.09928    4.2706717   -393.82861    308.77901    23487.193    1295.9559 
    9798   -398.11399    4.2859726   -393.82802     309.8853    23437.377    1295.9559 
    9799   -398.12894    4.3015101   -393.82743    311.00869      23386.8    1295.9559 
    9800    -398.1441    4.3172706   -393.82683    312.14821    23335.512    1295.9559 
    9801   -398.15947    4.3332404   -393.82623    313.30287    23283.559    1295.9559 
    9802   -398.17503    4.3494053   -393.82563    314.47163    23230.993    1295.9559 
    9803   -398.19077    4.3657508   -393.82502    315.65344    23177.863    1295.9559 
    9804   -398.20667    4.3822621   -393.82441    316.84724    23124.222    1295.9559 
    9805   -398.22272     4.398924    -393.8238    318.05193    23070.122    1295.9559 
    9806   -398.23891     4.415721   -393.82319     319.2664    23015.616    1295.9559 
    9807   -398.25521    4.4326377   -393.82257    320.48951    22960.761    1295.9559 
    9808   -398.27161    4.4496581   -393.82195    321.72012    22905.611    1295.9559 
    9809   -398.28809     4.466766   -393.82133    322.95706    22850.225    1295.9559 
    9810   -398.30465    4.4839451    -393.8207    324.19915    22794.658    1295.9559 
    9811   -398.32126     4.501179   -393.82008     325.4452     22738.97    1295.9559 
    9812    -398.3379    4.5184508   -393.81945    326.69399     22683.22    1295.9559 
    9813   -398.35456    4.5357438   -393.81881    327.94431    22627.465    1295.9559 
    9814   -398.37122    4.5530409   -393.81818    329.19493    22571.767    1295.9559 
    9815   -398.38787    4.5703249   -393.81754     330.4446    22516.186    1295.9559 
    9816   -398.40448    4.5875785    -393.8169    331.69207    22460.783    1295.9559 
    9817   -398.42105    4.6047842   -393.81626    332.93608    22405.619    1295.9559 
    9818   -398.43754    4.6219245   -393.81562    334.17537    22350.756    1295.9559 
    9819   -398.45395    4.6389817   -393.81497    335.40864    22296.258    1295.9559 
    9820   -398.47026    4.6559381   -393.81432    336.63462    22242.186    1295.9559 
    9821   -398.48645    4.6727758   -393.81367    337.85202    22188.605    1295.9559 
    9822   -398.50249    4.6894767   -393.81302    339.05954    22135.577    1295.9559 
    9823   -398.51838     4.706023   -393.81236    340.25588    22083.168    1295.9559 
    9824    -398.5341    4.7223966    -393.8117    341.43972    22031.441    1295.9559 
    9825   -398.54962    4.7385793   -393.81104    342.60976    21980.462    1295.9559 
    9826   -398.56494     4.754553   -393.81038     343.7647    21930.295    1295.9559 
    9827   -398.58002    4.7702994   -393.80972     344.9032    21881.005    1295.9559 
    9828   -398.59485    4.7858005   -393.80905    346.02396    21832.658    1295.9559 
    9829   -398.60943    4.8010379   -393.80839    347.12566    21785.319    1295.9559 
    9830   -398.62371    4.8159936   -393.80772    348.20699    21739.054    1295.9559 
    9831    -398.6377    4.8306494   -393.80705    349.26664    21693.927    1295.9559 
    9832   -398.65136    4.8449873   -393.80638     350.3033    21650.002    1295.9559 
    9833   -398.66469    4.8589892    -393.8057    351.31567    21607.343    1295.9559 
    9834   -398.67767    4.8726373   -393.80503    352.30245    21566.014    1295.9559 
    9835   -398.69027    4.8859137   -393.80435    353.26237    21526.076    1295.9559 
    9836   -398.70248    4.8988009   -393.80368    354.19414    21487.591    1295.9559 
    9837   -398.71428    4.9112813     -393.803     355.0965    21450.619    1295.9559 
    9838   -398.72566    4.9233378   -393.80232    355.96822    21415.219    1295.9559 
    9839   -398.73659    4.9349534   -393.80164    356.80804    21381.449    1295.9559 
    9840   -398.74707    4.9461111   -393.80096    357.61477    21349.363    1295.9559 
    9841   -398.75707    4.9567946   -393.80028    358.38721    21319.016    1295.9559 
    9842   -398.76658    4.9669877    -393.7996     359.1242     21290.46    1295.9559 
    9843   -398.77559    4.9766746   -393.79891    359.82458    21263.745    1295.9559 
    9844   -398.78407      4.98584   -393.79823    360.48726     21238.92    1295.9559 
    9845   -398.79202    4.9944688   -393.79755    361.11114     21216.03    1295.9559 
    9846   -398.79941    5.0025465   -393.79686    361.69518    21195.119    1295.9559 
    9847   -398.80624    5.0100592   -393.79618    362.23836    21176.228    1295.9559 
    9848   -398.81249    5.0169935    -393.7955    362.73972    21159.397    1295.9559 
    9849   -398.81815    5.0233364   -393.79481    363.19833    21144.661    1295.9559 
    9850    -398.8232    5.0290757   -393.79413     363.6133    21132.054    1295.9559 
    9851   -398.82765       5.0342   -393.79345    363.98379    21121.609    1295.9559 
    9852   -398.83146    5.0386982   -393.79276    364.30903    21113.352    1295.9559 
    9853   -398.83464    5.0425605   -393.79208    364.58828    21107.311    1295.9559 
    9854   -398.83717    5.0457773    -393.7914    364.82086    21103.508    1295.9559 
    9855   -398.83906    5.0483404   -393.79071    365.00617    21101.964    1295.9559 
    9856   -398.84028    5.0502419   -393.79003    365.14366    21102.697    1295.9559 
    9857   -398.84083    5.0514753   -393.78935    365.23284    21105.722    1295.9559 
    9858   -398.84071    5.0520348   -393.78867    365.27329     21111.05    1295.9559 
    9859   -398.83991    5.0519155     -393.788    365.26466    21118.691    1295.9559 
    9860   -398.83843    5.0511136   -393.78732    365.20669     21128.65    1295.9559 
    9861   -398.83627    5.0496265   -393.78664    365.09917    21140.932    1295.9559 
    9862   -398.83342    5.0474524   -393.78597    364.94198    21155.535    1295.9559 
    9863   -398.82988    5.0445908   -393.78529    364.73507    21172.457    1295.9559 
    9864   -398.82566    5.0410421   -393.78462    364.47849    21191.689    1295.9559 
    9865   -398.82076     5.036808   -393.78395    364.17236    21213.223    1295.9559 
    9866   -398.81517    5.0318913   -393.78328    363.81687    21237.045    1295.9559 
    9867   -398.80891    5.0262961   -393.78261    363.41233    21263.137    1295.9559 
    9868   -398.80197    5.0200276   -393.78195     362.9591    21291.478    1295.9559 
    9869   -398.79437     5.013092   -393.78128    362.45764    21322.042    1295.9559 
    9870   -398.78612    5.0054972   -393.78062    361.90852      21354.8    1295.9559 
    9871   -398.77721    4.9972518   -393.77996    361.31236    21389.719    1295.9559 
    9872   -398.76767    4.9883659    -393.7793    360.66989    21426.759    1295.9559 
    9873   -398.75749     4.978851   -393.77864    359.98194    21465.878    1295.9559 
    9874   -398.74671    4.9687193   -393.77799     359.2494    21507.029    1295.9559 
    9875   -398.73532    4.9579848   -393.77734    358.47327    21550.159    1295.9559 
    9876   -398.72335    4.9466623   -393.77669    357.65462    21595.214    1295.9559 
    9877   -398.71081    4.9347679   -393.77604    356.79464    21642.131    1295.9559 
    9878   -398.69771     4.922319   -393.77539    355.89455    21690.848    1295.9559 
    9879   -398.68408     4.909334   -393.77475    354.95571    21741.293    1295.9559 
    9880   -398.66994    4.8958326   -393.77411    353.97953    21793.395    1295.9559 
    9881    -398.6553    4.8818354   -393.77347     352.9675    21847.075    1295.9559 
    9882    -398.6402    4.8673642   -393.77283    351.92119    21902.254    1295.9559 
    9883   -398.62464    4.8524418    -393.7722    350.84227    21958.846    1295.9559 
    9884   -398.60866     4.837092   -393.77157    349.73245    22016.765    1295.9559 
    9885   -398.59228    4.8213397   -393.77094    348.59352    22075.918    1295.9559 
    9886   -398.57552    4.8052105   -393.77031    347.42734    22136.213    1295.9559 
    9887   -398.55842    4.7887309   -393.76969    346.23584    22197.553    1295.9559 
    9888     -398.541    4.7719284   -393.76907    345.02097    22259.839    1295.9559 
    9889   -398.52328     4.754831   -393.76845    343.78479    22322.969    1295.9559 
    9890    -398.5053    4.7374675   -393.76784    342.52938     22386.84    1295.9559 
    9891   -398.48709    4.7198675   -393.76722    341.25686    22451.347    1295.9559 
    9892   -398.46867    4.7020609   -393.76661     339.9694    22516.383    1295.9559 
    9893   -398.45008    4.6840782     -393.766    338.66922     22581.84    1295.9559 
    9894   -398.43135    4.6659505    -393.7654    337.35854     22647.61    1295.9559 
    9895    -398.4125    4.6477089    -393.7648    336.03964    22713.583    1295.9559 
    9896   -398.39358    4.6293852   -393.76419    334.71479    22779.648    1295.9559 
    9897   -398.37461    4.6110111    -393.7636     333.3863    22845.695    1295.9559 
    9898   -398.35562    4.5926186     -393.763    332.05648    22911.614    1295.9559 
    9899   -398.33665    4.5742396   -393.76241    330.72764    22977.295    1295.9559 
    9900   -398.31772     4.555906   -393.76182    329.40208    23042.627    1295.9559 
    9901   -398.29888    4.5376497   -393.76123    328.08211    23107.503    1295.9559 
    9902   -398.28014    4.5195024   -393.76064    326.77002    23171.813    1295.9559 
    9903   -398.26155    4.5014953   -393.76006    325.46807     23235.45    1295.9559 
    9904   -398.24314    4.4836595   -393.75948     324.1785     23298.31    1295.9559 
    9905   -398.22492    4.4660254    -393.7589    322.90351    23360.288    1295.9559 
    9906   -398.20694     4.448623   -393.75832    321.64528    23421.284    1295.9559 
    9907   -398.18923    4.4314817   -393.75774    320.40593    23481.199    1295.9559 
    9908    -398.1718      4.41463   -393.75717    319.18752    23539.935    1295.9559 
    9909   -398.15469     4.398096    -393.7566    317.99207    23597.401    1295.9559 
    9910   -398.13794    4.3819066   -393.75603    316.82154    23653.506    1295.9559 
    9911   -398.12155    4.3660878   -393.75546     315.6778    23708.164    1295.9559 
    9912   -398.10556    4.3506646   -393.75489    314.56268    23761.291    1295.9559 
    9913   -398.08999    4.3356612   -393.75433    313.47789    23812.808    1295.9559 
    9914   -398.07487    4.3211003   -393.75377    312.42511    23862.641    1295.9559 
    9915   -398.06021    4.3070034    -393.7532    311.40587    23910.717    1295.9559 
    9916   -398.04604     4.293391   -393.75264    310.42167    23956.972    1295.9559 
    9917   -398.03237     4.280282   -393.75209    309.47386    24001.342    1295.9559 
    9918   -398.01922    4.2676942   -393.75153    308.56373     24043.77    1295.9559 
    9919   -398.00661    4.2556436   -393.75097    307.69245    24084.203    1295.9559 
    9920   -397.99456    4.2441452   -393.75042    306.86108    24122.594    1295.9559 
    9921   -397.98307    4.2332121   -393.74986     306.0706    24158.898    1295.9559 
    9922   -397.97216     4.222856   -393.74931    305.32183    24193.078    1295.9559 
    9923   -397.96184    4.2130872   -393.74875    304.61552      24225.1    1295.9559 
    9924   -397.95212    4.2039143    -393.7482     303.9523    24254.937    1295.9559 
    9925   -397.94299    4.1953442   -393.74765    303.33267    24282.564    1295.9559 
    9926   -397.93448    4.1873825    -393.7471    302.75702    24307.964    1295.9559 
    9927   -397.92658     4.180033   -393.74655    302.22563    24331.125    1295.9559 
    9928    -397.9193    4.1732979     -393.746    301.73867    24352.039    1295.9559 
    9929   -397.91262    4.1671779   -393.74545    301.29618    24370.706    1295.9559 
    9930   -397.90657    4.1616721    -393.7449    300.89809     24387.13    1295.9559 
    9931   -397.90112    4.1567779   -393.74435    300.54424    24401.319    1295.9559 
    9932   -397.89629    4.1524915    -393.7438    300.23432    24413.291    1295.9559 
    9933   -397.89205    4.1488073   -393.74325    299.96794    24423.064    1295.9559 
    9934   -397.88841    4.1457183    -393.7427     299.7446    24430.666    1295.9559 
    9935   -397.88536    4.1432162   -393.74214    299.56369    24436.129    1295.9559 
    9936   -397.88288     4.141291   -393.74159     299.4245    24439.489    1295.9559 
    9937   -397.88097    4.1399318   -393.74104    299.32623    24440.789    1295.9559 
    9938   -397.87962    4.1391261   -393.74049    299.26797    24440.073    1295.9559 
    9939    -397.8788    4.1388601   -393.73994    299.24874    24437.394    1295.9559 
    9940    -397.8785    4.1391191   -393.73938    299.26746    24432.806    1295.9559 
    9941   -397.87872     4.139887   -393.73883    299.32299    24426.369    1295.9559 
    9942   -397.87942    4.1411469   -393.73827    299.41408    24418.143    1295.9559 
    9943    -397.8806    4.1428808   -393.73772    299.53944    24408.195    1295.9559 
    9944   -397.88223    4.1450697   -393.73716    299.69771    24396.593    1295.9559 
    9945    -397.8843     4.147694    -393.7366    299.88745    24383.405    1295.9559 
    9946   -397.88678    4.1507332   -393.73604    300.10719    24368.705    1295.9559 
    9947   -397.88965    4.1541662   -393.73548     300.3554    24352.566    1295.9559 
    9948   -397.89289    4.1579713   -393.73492    300.63052    24335.063    1295.9559 
    9949   -397.89648    4.1621262   -393.73436    300.93093    24316.271    1295.9559 
    9950    -397.9004    4.1666084   -393.73379      301.255    24296.268    1295.9559 
    9951   -397.90462    4.1713948   -393.73323    301.60107    24275.129    1295.9559 
    9952   -397.90912    4.1764624   -393.73266    301.96747    24252.933    1295.9559 
    9953   -397.91388    4.1817876   -393.73209     302.3525    24229.757    1295.9559 
    9954   -397.91887    4.1873471   -393.73152    302.75446    24205.679    1295.9559 
    9955   -397.92407    4.1931173   -393.73095    303.17165    24180.779    1295.9559 
    9956   -397.92945    4.1990747   -393.73038    303.60239    24155.135    1295.9559 
    9957     -397.935    4.2051961    -393.7298    304.04498    24128.825    1295.9559 
    9958   -397.94069    4.2114584   -393.72923    304.49775    24101.929    1295.9559 
    9959   -397.94649    4.2178385   -393.72865    304.95905    24074.524    1295.9559 
    9960   -397.95239    4.2243141   -393.72807    305.42725     24046.69    1295.9559 
    9961   -397.95835    4.2308628   -393.72749    305.90074    24018.503    1295.9559 
    9962   -397.96437     4.237463   -393.72691    306.37795    23990.044    1295.9559 
    9963   -397.97042    4.2440933   -393.72633    306.85734    23961.388    1295.9559 
    9964   -397.97647     4.250733   -393.72574     307.3374    23932.614    1295.9559 
    9965   -397.98252    4.2573618   -393.72515    307.81667    23903.798    1295.9559 
    9966   -397.98853    4.2639601   -393.72457    308.29375    23875.014    1295.9559 
    9967   -397.99448    4.2705089   -393.72398    308.76724    23846.336    1295.9559 
    9968   -398.00037    4.2769899   -393.72338    309.23583    23817.839    1295.9559 
    9969   -398.00618    4.2833855   -393.72279    309.69825    23789.592    1295.9559 
    9970   -398.01188    4.2896788    -393.7222    310.15326    23761.667    1295.9559 
    9971   -398.01745    4.2958535    -393.7216    310.59971    23734.132    1295.9559 
    9972    -398.0229    4.3018944     -393.721    311.03648    23707.054    1295.9559 
    9973   -398.02819    4.3077867   -393.72041     311.4625    23680.498    1295.9559 
    9974   -398.03332    4.3135166   -393.71981    311.87679    23654.526    1295.9559 
    9975   -398.03828     4.319071   -393.71921    312.27839      23629.2    1295.9559 
    9976   -398.04304    4.3244377    -393.7186    312.66641    23604.578    1295.9559 
    9977    -398.0476    4.3296052     -393.718    313.04003    23580.716    1295.9559 
    9978   -398.05196    4.3345629   -393.71739    313.39849    23557.668    1295.9559 
    9979   -398.05609    4.3393009   -393.71679    313.74105    23535.484    1295.9559 
    9980   -398.05999      4.34381   -393.71618    314.06707    23514.214    1295.9559 
    9981   -398.06366     4.348082   -393.71557    314.37594    23493.902    1295.9559 
    9982   -398.06707    4.3521093   -393.71496    314.66713    23474.591    1295.9559 
    9983   -398.07024    4.3558851   -393.71435    314.94013    23456.321    1295.9559 
    9984   -398.07315    4.3594033   -393.71374     315.1945    23439.127    1295.9559 
    9985   -398.07579    4.3626586   -393.71313    315.42987    23423.044    1295.9559 
    9986   -398.07816    4.3656463   -393.71252    315.64589      23408.1    1295.9559 
    9987   -398.08027    4.3683625    -393.7119    315.84227    23394.322    1295.9559 
    9988   -398.08209    4.3708037   -393.71129    316.01878    23381.734    1295.9559 
    9989   -398.08364    4.3729674   -393.71068    316.17521    23370.354    1295.9559 
    9990   -398.08491    4.3748513   -393.71006    316.31143      23360.2    1295.9559 
    9991    -398.0859    4.3764542   -393.70944    316.42732    23351.283    1295.9559 
    9992    -398.0866     4.377775   -393.70883    316.52281    23343.615    1295.9559 
    9993   -398.08702    4.3788134   -393.70821    316.59789    23337.202    1295.9559 
    9994   -398.08716    4.3795696   -393.70759    316.65257    23332.048    1295.9559 
    9995   -398.08702    4.3800444   -393.70697     316.6869    23328.155    1295.9559 
    9996   -398.08659    4.3802389   -393.70635    316.70096     23325.52    1295.9559 
    9997   -398.08589    4.3801549   -393.70573    316.69489    23324.141    1295.9559 
    9998   -398.08491    4.3797947   -393.70511    316.66884     23324.01    1295.9559 
    9999   -398.08365    4.3791607   -393.70449    316.62301    23325.117    1295.9559 
   10000   -398.08213    4.3782563   -393.70387    316.55761    23327.452    1295.9559 
Loop time of 44.9591 on 1 procs for 10000 steps with 108 atoms

Performance: 9.609 ns/day, 2.498 hours/ns, 222.424 timesteps/s
95.4% CPU use with 1 MPI tasks x no OpenMP threads

MPI task timing breakdown:
Section |  min time  |  avg time  |  max time  |%varavg| %total
---------------------------------------------------------------
Pair    | 44.281     | 44.281     | 44.281     |   0.0 | 98.49
Neigh   | 0.25346    | 0.25346    | 0.25346    |   0.0 |  0.56
Comm    | 0.1351     | 0.1351     | 0.1351     |   0.0 |  0.30
Output  | 0.19906    | 0.19906    | 0.19906    |   0.0 |  0.44
Modify  | 0.064402   | 0.064402   | 0.064402   |   0.0 |  0.14
Other   |            | 0.02623    |            |       |  0.06

Nlocal:        108.000 ave         108 max         108 min
Histogram: 1 0 0 0 0 0 0 0 0 0
Nghost:        2348.00 ave        2348 max        2348 min
Histogram: 1 0 0 0 0 0 0 0 0 0
Neighs:        0.00000 ave           0 max           0 min
Histogram: 1 0 0 0 0 0 0 0 0 0

Total # of neighbors = 0
Ave neighs/atom = 0.0000000
Neighbor list builds = 200
Dangerous builds not checked

write_data	copper.lmp
System init for write_data ...

Please see the log.cite file for references relevant to this simulation

Total wall time: 0:00:46
